<?xml version="1.0" encoding="ISO-8859-1"?>
<modeling>
 <generator>
  <i name="program" type="string">vasp </i>
  <i name="version" type="string">5.4.1  </i>
  <i name="subversion" type="string">05Feb16 (build Feb 09 2019 11:53:35) complex                          parallel </i>
  <i name="platform" type="string">IFC91_ompi </i>
  <i name="date" type="string">2021 09 19 </i>
  <i name="time" type="string">10:36:46 </i>
 </generator>
 <incar>
  <i type="string" name="SYSTEM"> C4</i>
  <i type="int" name="ISTART">     0</i>
  <i type="string" name="PREC">accurate</i>
  <i type="string" name="ALGO"> Normal</i>
  <i type="logical" name="ADDGRID"> T  </i>
  <i type="int" name="ISPIN">     2</i>
  <i type="int" name="ICHARG">    11</i>
  <i type="int" name="NELM">   300</i>
  <i type="int" name="NELMIN">     8</i>
  <i type="int" name="IBRION">     2</i>
  <i name="EDIFF">      0.00000100</i>
  <i name="EDIFFG">     -0.01000000</i>
  <i type="int" name="NSW">     0</i>
  <i type="int" name="ISIF">     2</i>
  <i type="int" name="ISYM">     0</i>
  <i name="ENCUT">    520.00000000</i>
  <v name="MAGMOM">      0.00000000      0.00000000</v>
  <i type="string" name="LREAL"> Auto</i>
  <i type="int" name="ISMEAR">     0</i>
  <i name="SIGMA">      0.05000000</i>
  <i type="int" name="NWRITE">     2</i>
  <i type="logical" name="LWAVE"> F  </i>
  <i type="logical" name="LCHARG"> T  </i>
  <i type="logical" name="LORBIT"> F  </i>
  <v type="int" name="KPOINT_BSE">    -1     0     0     0</v>
  <i type="int" name="NELM">   300</i>
  <i type="string" name="GGA"> PE</i>
 </incar>
 <kpoints>
  <generation param="listgenerated">
   <i name="divisions" type="int">      50 </i>
   <v>       0.00000000       0.00000000       0.00000000 </v>
   <v>       0.50000000       0.00000000       0.00000000 </v>
   <v>       0.33333333       0.33333333       0.00000000 </v>
   <v>       0.00000000       0.00000000       0.00000000 </v>
  </generation>
  <varray name="kpointlist" >
   <v>       0.00000000       0.00000000       0.00000000 </v>
   <v>       0.01020408       0.00000000       0.00000000 </v>
   <v>       0.02040816       0.00000000       0.00000000 </v>
   <v>       0.03061224       0.00000000       0.00000000 </v>
   <v>       0.04081633       0.00000000       0.00000000 </v>
   <v>       0.05102041       0.00000000       0.00000000 </v>
   <v>       0.06122449       0.00000000       0.00000000 </v>
   <v>       0.07142857       0.00000000       0.00000000 </v>
   <v>       0.08163265       0.00000000       0.00000000 </v>
   <v>       0.09183673       0.00000000       0.00000000 </v>
   <v>       0.10204082       0.00000000       0.00000000 </v>
   <v>       0.11224490       0.00000000       0.00000000 </v>
   <v>       0.12244898       0.00000000       0.00000000 </v>
   <v>       0.13265306       0.00000000       0.00000000 </v>
   <v>       0.14285714       0.00000000       0.00000000 </v>
   <v>       0.15306122       0.00000000       0.00000000 </v>
   <v>       0.16326531       0.00000000       0.00000000 </v>
   <v>       0.17346939       0.00000000       0.00000000 </v>
   <v>       0.18367347       0.00000000       0.00000000 </v>
   <v>       0.19387755       0.00000000       0.00000000 </v>
   <v>       0.20408163       0.00000000       0.00000000 </v>
   <v>       0.21428571       0.00000000       0.00000000 </v>
   <v>       0.22448980       0.00000000       0.00000000 </v>
   <v>       0.23469388       0.00000000       0.00000000 </v>
   <v>       0.24489796       0.00000000       0.00000000 </v>
   <v>       0.25510204       0.00000000       0.00000000 </v>
   <v>       0.26530612       0.00000000       0.00000000 </v>
   <v>       0.27551020       0.00000000       0.00000000 </v>
   <v>       0.28571429       0.00000000       0.00000000 </v>
   <v>       0.29591837       0.00000000       0.00000000 </v>
   <v>       0.30612245       0.00000000       0.00000000 </v>
   <v>       0.31632653       0.00000000       0.00000000 </v>
   <v>       0.32653061       0.00000000       0.00000000 </v>
   <v>       0.33673469       0.00000000       0.00000000 </v>
   <v>       0.34693878       0.00000000       0.00000000 </v>
   <v>       0.35714286       0.00000000       0.00000000 </v>
   <v>       0.36734694       0.00000000       0.00000000 </v>
   <v>       0.37755102       0.00000000       0.00000000 </v>
   <v>       0.38775510       0.00000000       0.00000000 </v>
   <v>       0.39795918       0.00000000       0.00000000 </v>
   <v>       0.40816327       0.00000000       0.00000000 </v>
   <v>       0.41836735       0.00000000       0.00000000 </v>
   <v>       0.42857143       0.00000000       0.00000000 </v>
   <v>       0.43877551       0.00000000       0.00000000 </v>
   <v>       0.44897959       0.00000000       0.00000000 </v>
   <v>       0.45918367       0.00000000       0.00000000 </v>
   <v>       0.46938776       0.00000000       0.00000000 </v>
   <v>       0.47959184       0.00000000       0.00000000 </v>
   <v>       0.48979592       0.00000000       0.00000000 </v>
   <v>       0.50000000       0.00000000       0.00000000 </v>
   <v>       0.50000000       0.00000000       0.00000000 </v>
   <v>       0.49659864       0.00680272       0.00000000 </v>
   <v>       0.49319728       0.01360544       0.00000000 </v>
   <v>       0.48979592       0.02040816       0.00000000 </v>
   <v>       0.48639456       0.02721088       0.00000000 </v>
   <v>       0.48299320       0.03401361       0.00000000 </v>
   <v>       0.47959184       0.04081633       0.00000000 </v>
   <v>       0.47619048       0.04761905       0.00000000 </v>
   <v>       0.47278912       0.05442177       0.00000000 </v>
   <v>       0.46938776       0.06122449       0.00000000 </v>
   <v>       0.46598639       0.06802721       0.00000000 </v>
   <v>       0.46258503       0.07482993       0.00000000 </v>
   <v>       0.45918367       0.08163265       0.00000000 </v>
   <v>       0.45578231       0.08843537       0.00000000 </v>
   <v>       0.45238095       0.09523810       0.00000000 </v>
   <v>       0.44897959       0.10204082       0.00000000 </v>
   <v>       0.44557823       0.10884354       0.00000000 </v>
   <v>       0.44217687       0.11564626       0.00000000 </v>
   <v>       0.43877551       0.12244898       0.00000000 </v>
   <v>       0.43537415       0.12925170       0.00000000 </v>
   <v>       0.43197279       0.13605442       0.00000000 </v>
   <v>       0.42857143       0.14285714       0.00000000 </v>
   <v>       0.42517007       0.14965986       0.00000000 </v>
   <v>       0.42176871       0.15646259       0.00000000 </v>
   <v>       0.41836735       0.16326531       0.00000000 </v>
   <v>       0.41496599       0.17006803       0.00000000 </v>
   <v>       0.41156463       0.17687075       0.00000000 </v>
   <v>       0.40816327       0.18367347       0.00000000 </v>
   <v>       0.40476190       0.19047619       0.00000000 </v>
   <v>       0.40136054       0.19727891       0.00000000 </v>
   <v>       0.39795918       0.20408163       0.00000000 </v>
   <v>       0.39455782       0.21088435       0.00000000 </v>
   <v>       0.39115646       0.21768707       0.00000000 </v>
   <v>       0.38775510       0.22448980       0.00000000 </v>
   <v>       0.38435374       0.23129252       0.00000000 </v>
   <v>       0.38095238       0.23809524       0.00000000 </v>
   <v>       0.37755102       0.24489796       0.00000000 </v>
   <v>       0.37414966       0.25170068       0.00000000 </v>
   <v>       0.37074830       0.25850340       0.00000000 </v>
   <v>       0.36734694       0.26530612       0.00000000 </v>
   <v>       0.36394558       0.27210884       0.00000000 </v>
   <v>       0.36054422       0.27891156       0.00000000 </v>
   <v>       0.35714286       0.28571429       0.00000000 </v>
   <v>       0.35374150       0.29251701       0.00000000 </v>
   <v>       0.35034014       0.29931973       0.00000000 </v>
   <v>       0.34693878       0.30612245       0.00000000 </v>
   <v>       0.34353741       0.31292517       0.00000000 </v>
   <v>       0.34013605       0.31972789       0.00000000 </v>
   <v>       0.33673469       0.32653061       0.00000000 </v>
   <v>       0.33333333       0.33333333       0.00000000 </v>
   <v>       0.33333333       0.33333333       0.00000000 </v>
   <v>       0.32653061       0.32653061       0.00000000 </v>
   <v>       0.31972789       0.31972789       0.00000000 </v>
   <v>       0.31292517       0.31292517       0.00000000 </v>
   <v>       0.30612245       0.30612245       0.00000000 </v>
   <v>       0.29931973       0.29931973       0.00000000 </v>
   <v>       0.29251701       0.29251701       0.00000000 </v>
   <v>       0.28571429       0.28571429       0.00000000 </v>
   <v>       0.27891156       0.27891156       0.00000000 </v>
   <v>       0.27210884       0.27210884       0.00000000 </v>
   <v>       0.26530612       0.26530612       0.00000000 </v>
   <v>       0.25850340       0.25850340       0.00000000 </v>
   <v>       0.25170068       0.25170068       0.00000000 </v>
   <v>       0.24489796       0.24489796       0.00000000 </v>
   <v>       0.23809524       0.23809524       0.00000000 </v>
   <v>       0.23129252       0.23129252       0.00000000 </v>
   <v>       0.22448980       0.22448980       0.00000000 </v>
   <v>       0.21768707       0.21768707       0.00000000 </v>
   <v>       0.21088435       0.21088435       0.00000000 </v>
   <v>       0.20408163       0.20408163       0.00000000 </v>
   <v>       0.19727891       0.19727891       0.00000000 </v>
   <v>       0.19047619       0.19047619       0.00000000 </v>
   <v>       0.18367347       0.18367347       0.00000000 </v>
   <v>       0.17687075       0.17687075       0.00000000 </v>
   <v>       0.17006803       0.17006803       0.00000000 </v>
   <v>       0.16326531       0.16326531       0.00000000 </v>
   <v>       0.15646259       0.15646259       0.00000000 </v>
   <v>       0.14965986       0.14965986       0.00000000 </v>
   <v>       0.14285714       0.14285714       0.00000000 </v>
   <v>       0.13605442       0.13605442       0.00000000 </v>
   <v>       0.12925170       0.12925170       0.00000000 </v>
   <v>       0.12244898       0.12244898       0.00000000 </v>
   <v>       0.11564626       0.11564626       0.00000000 </v>
   <v>       0.10884354       0.10884354       0.00000000 </v>
   <v>       0.10204082       0.10204082       0.00000000 </v>
   <v>       0.09523810       0.09523810       0.00000000 </v>
   <v>       0.08843537       0.08843537       0.00000000 </v>
   <v>       0.08163265       0.08163265       0.00000000 </v>
   <v>       0.07482993       0.07482993       0.00000000 </v>
   <v>       0.06802721       0.06802721       0.00000000 </v>
   <v>       0.06122449       0.06122449       0.00000000 </v>
   <v>       0.05442177       0.05442177       0.00000000 </v>
   <v>       0.04761905       0.04761905       0.00000000 </v>
   <v>       0.04081633       0.04081633       0.00000000 </v>
   <v>       0.03401361       0.03401361       0.00000000 </v>
   <v>       0.02721088       0.02721088       0.00000000 </v>
   <v>       0.02040816       0.02040816       0.00000000 </v>
   <v>       0.01360544       0.01360544       0.00000000 </v>
   <v>       0.00680272       0.00680272       0.00000000 </v>
   <v>       0.00000000       0.00000000       0.00000000 </v>
  </varray>
  <varray name="weights" >
   <v>       0.00666667 </v>
   <v>       0.00666667 </v>
   <v>       0.00666667 </v>
   <v>       0.00666667 </v>
   <v>       0.00666667 </v>
   <v>       0.00666667 </v>
   <v>       0.00666667 </v>
   <v>       0.00666667 </v>
   <v>       0.00666667 </v>
   <v>       0.00666667 </v>
   <v>       0.00666667 </v>
   <v>       0.00666667 </v>
   <v>       0.00666667 </v>
   <v>       0.00666667 </v>
   <v>       0.00666667 </v>
   <v>       0.00666667 </v>
   <v>       0.00666667 </v>
   <v>       0.00666667 </v>
   <v>       0.00666667 </v>
   <v>       0.00666667 </v>
   <v>       0.00666667 </v>
   <v>       0.00666667 </v>
   <v>       0.00666667 </v>
   <v>       0.00666667 </v>
   <v>       0.00666667 </v>
   <v>       0.00666667 </v>
   <v>       0.00666667 </v>
   <v>       0.00666667 </v>
   <v>       0.00666667 </v>
   <v>       0.00666667 </v>
   <v>       0.00666667 </v>
   <v>       0.00666667 </v>
   <v>       0.00666667 </v>
   <v>       0.00666667 </v>
   <v>       0.00666667 </v>
   <v>       0.00666667 </v>
   <v>       0.00666667 </v>
   <v>       0.00666667 </v>
   <v>       0.00666667 </v>
   <v>       0.00666667 </v>
   <v>       0.00666667 </v>
   <v>       0.00666667 </v>
   <v>       0.00666667 </v>
   <v>       0.00666667 </v>
   <v>       0.00666667 </v>
   <v>       0.00666667 </v>
   <v>       0.00666667 </v>
   <v>       0.00666667 </v>
   <v>       0.00666667 </v>
   <v>       0.00666667 </v>
   <v>       0.00666667 </v>
   <v>       0.00666667 </v>
   <v>       0.00666667 </v>
   <v>       0.00666667 </v>
   <v>       0.00666667 </v>
   <v>       0.00666667 </v>
   <v>       0.00666667 </v>
   <v>       0.00666667 </v>
   <v>       0.00666667 </v>
   <v>       0.00666667 </v>
   <v>       0.00666667 </v>
   <v>       0.00666667 </v>
   <v>       0.00666667 </v>
   <v>       0.00666667 </v>
   <v>       0.00666667 </v>
   <v>       0.00666667 </v>
   <v>       0.00666667 </v>
   <v>       0.00666667 </v>
   <v>       0.00666667 </v>
   <v>       0.00666667 </v>
   <v>       0.00666667 </v>
   <v>       0.00666667 </v>
   <v>       0.00666667 </v>
   <v>       0.00666667 </v>
   <v>       0.00666667 </v>
   <v>       0.00666667 </v>
   <v>       0.00666667 </v>
   <v>       0.00666667 </v>
   <v>       0.00666667 </v>
   <v>       0.00666667 </v>
   <v>       0.00666667 </v>
   <v>       0.00666667 </v>
   <v>       0.00666667 </v>
   <v>       0.00666667 </v>
   <v>       0.00666667 </v>
   <v>       0.00666667 </v>
   <v>       0.00666667 </v>
   <v>       0.00666667 </v>
   <v>       0.00666667 </v>
   <v>       0.00666667 </v>
   <v>       0.00666667 </v>
   <v>       0.00666667 </v>
   <v>       0.00666667 </v>
   <v>       0.00666667 </v>
   <v>       0.00666667 </v>
   <v>       0.00666667 </v>
   <v>       0.00666667 </v>
   <v>       0.00666667 </v>
   <v>       0.00666667 </v>
   <v>       0.00666667 </v>
   <v>       0.00666667 </v>
   <v>       0.00666667 </v>
   <v>       0.00666667 </v>
   <v>       0.00666667 </v>
   <v>       0.00666667 </v>
   <v>       0.00666667 </v>
   <v>       0.00666667 </v>
   <v>       0.00666667 </v>
   <v>       0.00666667 </v>
   <v>       0.00666667 </v>
   <v>       0.00666667 </v>
   <v>       0.00666667 </v>
   <v>       0.00666667 </v>
   <v>       0.00666667 </v>
   <v>       0.00666667 </v>
   <v>       0.00666667 </v>
   <v>       0.00666667 </v>
   <v>       0.00666667 </v>
   <v>       0.00666667 </v>
   <v>       0.00666667 </v>
   <v>       0.00666667 </v>
   <v>       0.00666667 </v>
   <v>       0.00666667 </v>
   <v>       0.00666667 </v>
   <v>       0.00666667 </v>
   <v>       0.00666667 </v>
   <v>       0.00666667 </v>
   <v>       0.00666667 </v>
   <v>       0.00666667 </v>
   <v>       0.00666667 </v>
   <v>       0.00666667 </v>
   <v>       0.00666667 </v>
   <v>       0.00666667 </v>
   <v>       0.00666667 </v>
   <v>       0.00666667 </v>
   <v>       0.00666667 </v>
   <v>       0.00666667 </v>
   <v>       0.00666667 </v>
   <v>       0.00666667 </v>
   <v>       0.00666667 </v>
   <v>       0.00666667 </v>
   <v>       0.00666667 </v>
   <v>       0.00666667 </v>
   <v>       0.00666667 </v>
   <v>       0.00666667 </v>
   <v>       0.00666667 </v>
   <v>       0.00666667 </v>
   <v>       0.00666667 </v>
   <v>       0.00666667 </v>
   <v>       0.00666667 </v>
  </varray>
 </kpoints>
 <parameters>
  <separator name="general" >
   <i type="string" name="SYSTEM">C4</i>
   <i type="logical" name="LCOMPAT"> F  </i>
  </separator>
  <separator name="electronic" >
   <i type="string" name="PREC">accura</i>
   <i name="ENMAX">    520.00000000</i>
   <i name="ENAUG">    644.87300000</i>
   <i name="EDIFF">      0.00000100</i>
   <i type="int" name="IALGO">    38</i>
   <i type="int" name="IWAVPR">    10</i>
   <i type="int" name="NBANDS">    20</i>
   <i name="NELECT">      8.00000000</i>
   <i type="int" name="TURBO">     0</i>
   <i type="int" name="IRESTART">     0</i>
   <i type="int" name="NREBOOT">     0</i>
   <i type="int" name="NMIN">     0</i>
   <i name="EREF">      0.00000000</i>
   <separator name="electronic smearing" >
    <i type="int" name="ISMEAR">     0</i>
    <i name="SIGMA">      0.05000000</i>
    <i name="KSPACING">      0.50000000</i>
    <i type="logical" name="KGAMMA"> T  </i>
   </separator>
   <separator name="electronic projectors" >
    <i type="logical" name="LREAL"> T  </i>
    <v name="ROPT">     -0.00025000</v>
    <i type="int" name="LMAXPAW">  -100</i>
    <i type="int" name="LMAXMIX">     2</i>
    <i type="logical" name="NLSPLINE"> F  </i>
   </separator>
   <separator name="electronic startup" >
    <i type="int" name="ISTART">     0</i>
    <i type="int" name="ICHARG">    11</i>
    <i type="int" name="INIWAV">     1</i>
   </separator>
   <separator name="electronic spin" >
    <i type="int" name="ISPIN">     2</i>
    <i type="logical" name="LNONCOLLINEAR"> F  </i>
    <v name="MAGMOM">      0.00000000      0.00000000</v>
    <i name="NUPDOWN">     -1.00000000</i>
    <i type="logical" name="LSORBIT"> F  </i>
    <v name="SAXIS">      0.00000000      0.00000000      1.00000000</v>
    <i type="logical" name="LSPIRAL"> F  </i>
    <v name="QSPIRAL">      0.00000000      0.00000000      0.00000000</v>
    <i type="logical" name="LZEROZ"> F  </i>
   </separator>
   <separator name="electronic exchange-correlation" >
    <i type="logical" name="LASPH"> F  </i>
    <i type="logical" name="LMETAGGA"> F  </i>
   </separator>
   <separator name="electronic convergence" >
    <i type="int" name="NELM">   300</i>
    <i type="int" name="NELMDL">    -5</i>
    <i type="int" name="NELMIN">     8</i>
    <i name="ENINI">    520.00000000</i>
    <separator name="electronic convergence detail" >
     <i type="logical" name="LDIAG"> T  </i>
     <i type="logical" name="LSUBROT"> F  </i>
     <i name="WEIMIN">      0.00000000</i>
     <i name="EBREAK">      0.00000001</i>
     <i name="DEPER">      0.30000000</i>
     <i type="int" name="NRMM">     4</i>
     <i name="TIME">      0.40000000</i>
    </separator>
   </separator>
   <separator name="electronic mixer" >
    <i name="AMIX">      0.40000000</i>
    <i name="BMIX">      1.00000000</i>
    <i name="AMIN">      0.10000000</i>
    <i name="AMIX_MAG">      1.60000000</i>
    <i name="BMIX_MAG">      1.00000000</i>
    <separator name="electronic mixer details" >
     <i type="int" name="IMIX">     4</i>
     <i type="logical" name="MIXFIRST"> F  </i>
     <i type="int" name="MAXMIX">   -45</i>
     <i name="WC">    100.00000000</i>
     <i type="int" name="INIMIX">     1</i>
     <i type="int" name="MIXPRE">     1</i>
     <i type="int" name="MREMOVE">     5</i>
    </separator>
   </separator>
   <separator name="electronic dipolcorrection" >
    <i type="logical" name="LDIPOL"> F  </i>
    <i type="logical" name="LMONO"> F  </i>
    <i type="int" name="IDIPOL">     0</i>
    <i name="EPSILON">      1.00000000</i>
    <v name="DIPOL">   -100.00000000   -100.00000000   -100.00000000</v>
    <i name="EFIELD">      0.00000000</i>
   </separator>
  </separator>
  <separator name="grids" >
   <i type="int" name="NGX">    18</i>
   <i type="int" name="NGY">    18</i>
   <i type="int" name="NGZ">   150</i>
   <i type="int" name="NGXF">    36</i>
   <i type="int" name="NGYF">    36</i>
   <i type="int" name="NGZF">   300</i>
   <i type="logical" name="ADDGRID"> T  </i>
  </separator>
  <separator name="ionic" >
   <i type="int" name="NSW">     0</i>
   <i type="int" name="IBRION">    -1</i>
   <i type="int" name="ISIF">     2</i>
   <i name="PSTRESS">      0.00000000</i>
   <i name="EDIFFG">     -0.01000000</i>
   <i type="int" name="NFREE">     1</i>
   <i name="POTIM">      0.50000000</i>
   <i name="SMASS">     -3.00000000</i>
   <i name="SCALEE">      1.00000000</i>
  </separator>
  <separator name="ionic md" >
   <i name="TEBEG">      0.00010000</i>
   <i name="TEEND">      0.00010000</i>
   <i type="int" name="NBLOCK">     1</i>
   <i type="int" name="KBLOCK">     1</i>
   <i type="int" name="NPACO">   256</i>
   <i name="APACO">     16.00000000</i>
  </separator>
  <separator name="symmetry" >
   <i type="int" name="ISYM">     0</i>
   <i name="SYMPREC">      0.00001000</i>
  </separator>
  <separator name="dos" >
   <i type="logical" name="LORBIT"> F  </i>
   <v name="RWIGS">     -1.00000000</v>
   <i type="int" name="NEDOS">   301</i>
   <i name="EMIN">     10.00000000</i>
   <i name="EMAX">    -10.00000000</i>
   <i name="EFERMI">      0.00000000</i>
  </separator>
  <separator name="writing" >
   <i type="int" name="NWRITE">     2</i>
   <i type="logical" name="LWAVE"> F  </i>
   <i type="logical" name="LCHARG"> T  </i>
   <i type="logical" name="LPARD"> F  </i>
   <i type="logical" name="LVTOT"> F  </i>
   <i type="logical" name="LVHAR"> F  </i>
   <i type="logical" name="LELF"> F  </i>
   <i type="logical" name="LOPTICS"> F  </i>
   <v name="STM">      0.00000000      0.00000000      0.00000000      0.00000000      0.00000000      0.00000000      0.00000000</v>
  </separator>
  <separator name="performance" >
   <i type="int" name="NPAR">    20</i>
   <i type="int" name="NSIM">     4</i>
   <i type="int" name="NBLK">    -1</i>
   <i type="logical" name="LPLANE"> T  </i>
   <i type="logical" name="LSCALAPACK"> T  </i>
   <i type="logical" name="LSCAAWARE"> F  </i>
   <i type="logical" name="LSCALU"> F  </i>
   <i type="logical" name="LASYNC"> F  </i>
   <i type="logical" name="LORBITALREAL"> F  </i>
  </separator>
  <separator name="miscellaneous" >
   <i type="int" name="IDIOT">     3</i>
   <i type="logical" name="LMUSIC"> F  </i>
   <v name="POMASS">     12.01100000</v>
   <v name="DARWINR">      0.00000000</v>
   <v name="DARWINV">      1.00000000</v>
   <i type="logical" name="LCORR"> T  </i>
  </separator>
  <i type="logical" name="GGA_COMPAT"> T  </i>
  <i type="logical" name="LBERRY"> F  </i>
  <i type="int" name="ICORELEVEL">     0</i>
  <i type="logical" name="LDAU"> F  </i>
  <i type="int" name="I_CONSTRAINED_M">     0</i>
  <separator name="electronic exchange-correlation" >
   <i type="string" name="GGA">PE</i>
   <i type="int" name="VOSKOWN">     0</i>
   <i type="logical" name="LHFCALC"> F  </i>
   <i type="string" name="PRECFOCK"></i>
   <i type="logical" name="LSYMGRAD"> F  </i>
   <i type="logical" name="LHFONE"> F  </i>
   <i type="logical" name="LRHFCALC"> F  </i>
   <i type="logical" name="LTHOMAS"> F  </i>
   <i type="logical" name="LMODELHF"> F  </i>
   <i name="ENCUT4O">     -1.00000000</i>
   <i type="int" name="EXXOEP">     0</i>
   <i type="int" name="FOURORBIT">     0</i>
   <i name="AEXX">      0.00000000</i>
   <i name="HFALPHA">      0.00000000</i>
   <i name="MCALPHA">      0.00000000</i>
   <i name="ALDAX">      1.00000000</i>
   <i name="AGGAX">      1.00000000</i>
   <i name="ALDAC">      1.00000000</i>
   <i name="AGGAC">      1.00000000</i>
   <i type="int" name="NKREDX">     1</i>
   <i type="int" name="NKREDY">     1</i>
   <i type="int" name="NKREDZ">     1</i>
   <i type="logical" name="SHIFTRED"> F  </i>
   <i type="logical" name="ODDONLY"> F  </i>
   <i type="logical" name="EVENONLY"> F  </i>
   <i type="int" name="LMAXFOCK">     0</i>
   <i type="int" name="NMAXFOCKAE">     0</i>
   <i type="logical" name="LFOCKAEDFT"> F  </i>
   <i name="HFSCREEN">      0.00000000</i>
   <i name="HFSCREENC">      0.00000000</i>
   <i type="int" name="NBANDSGWLOW">     0</i>
  </separator>
  <separator name="vdW DFT" >
   <i type="logical" name="LUSE_VDW"> F  </i>
   <i name="Zab_VDW">     -0.84910000</i>
   <i name="PARAM1">      0.12340000</i>
   <i name="PARAM2">      1.00000000</i>
   <i name="PARAM3">      0.00000000</i>
  </separator>
  <separator name="model GW" >
   <i type="int" name="MODEL_GW">     0</i>
   <i name="MODEL_EPS0">     31.64225092</i>
   <i name="MODEL_ALPHA">      1.00000000</i>
  </separator>
  <separator name="linear response parameters" >
   <i type="logical" name="LEPSILON"> F  </i>
   <i type="logical" name="LRPA"> F  </i>
   <i type="logical" name="LNABLA"> F  </i>
   <i type="logical" name="LVEL"> F  </i>
   <i type="int" name="KINTER">     0</i>
   <i name="CSHIFT">      0.10000000</i>
   <i name="OMEGAMAX">     -1.00000000</i>
   <i name="DEG_THRESHOLD">      0.00200000</i>
  </separator>
  <separator name="orbital magnetization" >
   <i type="logical" name="NUCIND"> F  </i>
   <v name="MAGPOS">      0.00000000      0.00000000      0.00000000</v>
   <i type="logical" name="LNICSALL"> T  </i>
   <i type="logical" name="ORBITALMAG"> F  </i>
   <i type="logical" name="LMAGBLOCH"> F  </i>
   <i type="logical" name="LCHIMAG"> F  </i>
   <i type="logical" name="LGAUGE"> T  </i>
   <i type="int" name="MAGATOM">     0</i>
   <v name="MAGDIPOL">      0.00000000      0.00000000      0.00000000</v>
   <v name="AVECCONST">      0.00000000      0.00000000      0.00000000</v>
  </separator>
  <separator name="response functions" >
   <i type="logical" name="LADDER"> F  </i>
   <i type="logical" name="LFXC"> F  </i>
   <i type="logical" name="LHARTREE"> T  </i>
   <i type="int" name="IBSE">     0</i>
   <v type="int" name="KPOINT">    -1     0     0     0</v>
   <i type="logical" name="LTCTE"> F  </i>
   <i type="logical" name="LTETE"> F  </i>
   <i type="logical" name="LTRIPLET"> F  </i>
   <i type="logical" name="LFXCEPS"> F  </i>
   <i type="logical" name="LFXHEG"> F  </i>
   <i type="int" name="NATURALO">     0</i>
   <i type="logical" name="L2ORDER"> F  </i>
   <i type="logical" name="LUSEW"> F  </i>
   <i name="ENCUTGW">     -2.00000000</i>
   <i name="ENCUTGWSOFT">     -2.00000000</i>
   <i name="ENCUTLF">     -1.00000000</i>
   <i type="int" name="LMAXMP2">    -1</i>
   <i name="SCISSOR">      0.00000000</i>
   <i type="int" name="NOMEGA">     0</i>
   <i type="int" name="NOMEGAR">     0</i>
   <i type="int" name="NBANDSGW">    -1</i>
   <i type="int" name="NBANDSO">    -1</i>
   <i type="int" name="NBANDSV">    -1</i>
   <i type="int" name="NELM">   300</i>
   <i type="int" name="NELMHF">     1</i>
   <i type="int" name="DIM">     3</i>
   <i type="int" name="ANTIRES">     0</i>
   <i name="OMEGAMAX">    -30.00000000</i>
   <i name="OMEGAMIN">    -30.00000000</i>
   <i name="OMEGATL">   -200.00000000</i>
   <i type="int" name="OMEGAGRID">     0</i>
   <i name="CSHIFT">     -0.10000000</i>
   <i type="logical" name="SELFENERGY"> F  </i>
   <i type="logical" name="LSPECTRAL"> F  </i>
   <i type="logical" name="LSPECTRALGW"> F  </i>
   <i type="logical" name="LSINGLES"> F  </i>
   <i type="logical" name="LFERMIGW"> F  </i>
   <i type="logical" name="ODDONLYGW"> F  </i>
   <i type="logical" name="EVENONLYGW"> F  </i>
   <i type="int" name="NKREDLFX">     1</i>
   <i type="int" name="NKREDLFY">     1</i>
   <i type="int" name="NKREDLFZ">     1</i>
   <i type="int" name="MAXMEM">  1800</i>
   <i type="int" name="TELESCOPE">     0</i>
   <i type="int" name="TAUPAR">     1</i>
   <i type="int" name="OMEGAPAR">    -1</i>
   <i name="LAMBDA">      1.00000000</i>
  </separator>
  <separator name="External order field" >
   <i name="OFIELD_KAPPA">      0.00000000</i>
   <v name="OFIELD_K">      0.00000000      0.00000000      0.00000000</v>
   <i name="OFIELD_Q6_NEAR">      0.00000000</i>
   <i name="OFIELD_Q6_FAR">      0.00000000</i>
   <i name="OFIELD_A">      0.00000000</i>
  </separator>
 </parameters>
 <atominfo>
  <atoms>       2 </atoms>
  <types>       1 </types>
  <array name="atoms" >
   <dimension dim="1">ion</dimension>
   <field type="string">element</field>
   <field type="int">atomtype</field>
   <set>
    <rc><c>C </c><c>   1</c></rc>
    <rc><c>C </c><c>   1</c></rc>
   </set>
  </array>
  <array name="atomtypes" >
   <dimension dim="1">type</dimension>
   <field type="int">atomspertype</field>
   <field type="string">element</field>
   <field>mass</field>
   <field>valence</field>
   <field type="string">pseudopotential</field>
   <set>
    <rc><c>   2</c><c>C </c><c>     12.01100000</c><c>      4.00000000</c><c>  PAW_PBE C 08Apr2002                   </c></rc>
   </set>
  </array>
 </atominfo>
 <structure name="initialpos" >
  <crystal>
   <varray name="basis" >
    <v>       1.23385109      -2.13709277       0.00000000 </v>
    <v>       1.23385109       2.13709277       0.00000000 </v>
    <v>       0.00000000       0.00000000      20.00000000 </v>
   </varray>
   <i name="volume">    105.47416975 </i>
   <varray name="rec_basis" >
    <v>       0.40523529      -0.23396270       0.00000000 </v>
    <v>       0.40523529       0.23396270       0.00000000 </v>
    <v>       0.00000000       0.00000000       0.05000000 </v>
   </varray>
  </crystal>
  <varray name="positions" >
   <v>       0.33333636       0.66666909       0.75143735 </v>
   <v>       0.66666906       0.33333634       0.75143735 </v>
  </varray>
 </structure>
 <calculation>
  <scstep>
   <time name="dav">    3.26    3.26</time>
   <time name="total">    3.31    3.31</time>
   <energy>
    <i name="alphaZ">      3.11533018 </i>
    <i name="ewald">   1292.61469779 </i>
    <i name="hartreedc">  -1539.68236244 </i>
    <i name="XCdc">     27.53583551 </i>
    <i name="pawpsdc">    833.83397978 </i>
    <i name="pawaedc">   -835.20216779 </i>
    <i name="eentropy">     -0.00120677 </i>
    <i name="bandstr">    -54.70225134 </i>
    <i name="atom">    294.29778662 </i>
    <i name="e_fr_energy">     21.80964154 </i>
    <i name="e_wo_entrp">     21.81084831 </i>
    <i name="e_0_energy">     21.81024492 </i>
   </energy>
  </scstep>
  <scstep>
   <time name="dav">    4.83    4.83</time>
   <time name="total">    4.83    4.83</time>
   <energy>
    <i name="e_fr_energy">    -16.81848694 </i>
    <i name="e_wo_entrp">    -16.81811027 </i>
    <i name="e_0_energy">    -16.81829860 </i>
   </energy>
  </scstep>
  <scstep>
   <time name="dav">    4.00    4.00</time>
   <time name="total">    4.00    4.01</time>
   <energy>
    <i name="e_fr_energy">    -17.35303861 </i>
    <i name="e_wo_entrp">    -17.35227486 </i>
    <i name="e_0_energy">    -17.35265673 </i>
   </energy>
  </scstep>
  <scstep>
   <time name="dav">    5.01    5.00</time>
   <time name="total">    5.01    5.01</time>
   <energy>
    <i name="e_fr_energy">    -17.35460239 </i>
    <i name="e_wo_entrp">    -17.35383863 </i>
    <i name="e_0_energy">    -17.35422051 </i>
   </energy>
  </scstep>
  <scstep>
   <time name="dav">    3.98    3.98</time>
   <time name="total">    3.99    3.99</time>
   <energy>
    <i name="e_fr_energy">    -17.35460321 </i>
    <i name="e_wo_entrp">    -17.35383946 </i>
    <i name="e_0_energy">    -17.35422134 </i>
   </energy>
  </scstep>
  <scstep>
   <time name="dav">    5.43    5.43</time>
   <time name="total">    5.44    5.44</time>
   <energy>
    <i name="e_fr_energy">    -17.35460322 </i>
    <i name="e_wo_entrp">    -17.35383946 </i>
    <i name="e_0_energy">    -17.35422134 </i>
   </energy>
  </scstep>
  <scstep>
   <time name="dav">    3.99    3.99</time>
   <time name="total">    3.99    3.99</time>
   <energy>
    <i name="e_fr_energy">    -17.35460322 </i>
    <i name="e_wo_entrp">    -17.35383946 </i>
    <i name="e_0_energy">    -17.35422134 </i>
   </energy>
  </scstep>
  <scstep>
   <time name="dav">    3.38    3.38</time>
   <time name="total">    3.38    3.38</time>
   <energy>
    <i name="alphaZ">      3.11533018 </i>
    <i name="ewald">   1292.61469779 </i>
    <i name="hartreedc">  -1539.68236244 </i>
    <i name="XCdc">     27.53583551 </i>
    <i name="pawpsdc">    833.83397978 </i>
    <i name="pawaedc">   -835.20216779 </i>
    <i name="eentropy">     -0.00076376 </i>
    <i name="bandstr">    -93.86693910 </i>
    <i name="atom">    294.29778662 </i>
    <i name="e_fr_energy">    -17.35460322 </i>
    <i name="e_wo_entrp">    -17.35383946 </i>
    <i name="e_0_energy">    -17.35422134 </i>
   </energy>
  </scstep>
  <structure>
   <crystal>
    <varray name="basis" >
     <v>       1.23385109      -2.13709277       0.00000000 </v>
     <v>       1.23385109       2.13709277       0.00000000 </v>
     <v>       0.00000000       0.00000000      20.00000000 </v>
    </varray>
    <i name="volume">    105.47416975 </i>
    <varray name="rec_basis" >
     <v>       0.40523529      -0.23396270       0.00000000 </v>
     <v>       0.40523529       0.23396270       0.00000000 </v>
     <v>       0.00000000       0.00000000       0.05000000 </v>
    </varray>
   </crystal>
   <varray name="positions" >
    <v>       0.33333636       0.66666909       0.75143735 </v>
    <v>       0.66666906       0.33333634       0.75143735 </v>
   </varray>
  </structure>
  <varray name="forces" >
   <v>       6.87125469      -5.47160490      -0.00000021 </v>
   <v>      -6.87125469       5.47160490       0.00000021 </v>
  </varray>
  <varray name="stress" >
   <v>     115.85023161     -95.19815437      -0.00000246 </v>
   <v>     -95.19815442     -70.65291315      -0.00000115 </v>
   <v>      -0.00000253      -0.00000113      12.30798487 </v>
  </varray>
  <energy>
   <i name="e_fr_energy">    -17.53176200 </i>
   <i name="e_wo_entrp">    -17.53138012 </i>
   <i name="e_0_energy">     -0.00076376 </i>
  </energy>
  <time name="totalsc">   37.46   37.58</time>
  <eigenvalues>
   <array>
    <dimension dim="1">band</dimension>
    <dimension dim="2">kpoint</dimension>
    <dimension dim="3">spin</dimension>
    <field>eigene</field>
    <field>occ</field>
    <set>
     <set comment="spin 1">
      <set comment="kpoint 1">
       <r>  -22.2393    1.0000 </r>
       <r>  -10.3464    1.0000 </r>
       <r>   -5.7700    1.0000 </r>
       <r>   -5.7700    1.0000 </r>
       <r>    0.5200    0.0000 </r>
       <r>    1.3144    0.0000 </r>
       <r>    1.6646    0.0000 </r>
       <r>    2.5920    0.0000 </r>
       <r>    3.0271    0.0000 </r>
       <r>    4.7129    0.0000 </r>
       <r>    5.3284    0.0000 </r>
       <r>    5.5643    0.0000 </r>
       <r>    5.5644    0.0000 </r>
       <r>    7.6601    0.0000 </r>
       <r>    8.4552    0.0000 </r>
       <r>    8.6496    0.0000 </r>
       <r>    9.7105    0.0000 </r>
       <r>   11.4002    0.0000 </r>
       <r>   12.4083    0.0000 </r>
       <r>   15.8797    0.0000 </r>
      </set>
      <set comment="kpoint 2">
       <r>  -22.2369    1.0000 </r>
       <r>  -10.3435    1.0000 </r>
       <r>   -5.7803    1.0000 </r>
       <r>   -5.7755    1.0000 </r>
       <r>    0.5234    0.0000 </r>
       <r>    1.3178    0.0000 </r>
       <r>    1.6680    0.0000 </r>
       <r>    2.5954    0.0000 </r>
       <r>    3.0305    0.0000 </r>
       <r>    4.7162    0.0000 </r>
       <r>    5.3315    0.0000 </r>
       <r>    5.5663    0.0000 </r>
       <r>    5.5752    0.0000 </r>
       <r>    7.6634    0.0000 </r>
       <r>    8.4586    0.0000 </r>
       <r>    8.6408    0.0000 </r>
       <r>    9.7148    0.0000 </r>
       <r>   11.4033    0.0000 </r>
       <r>   12.4117    0.0000 </r>
       <r>   15.8826    0.0000 </r>
      </set>
      <set comment="kpoint 3">
       <r>  -22.2295    1.0000 </r>
       <r>  -10.3346    1.0000 </r>
       <r>   -5.8110    1.0000 </r>
       <r>   -5.7917    1.0000 </r>
       <r>    0.5334    0.0000 </r>
       <r>    1.3279    0.0000 </r>
       <r>    1.6783    0.0000 </r>
       <r>    2.6056    0.0000 </r>
       <r>    3.0406    0.0000 </r>
       <r>    4.7263    0.0000 </r>
       <r>    5.3405    0.0000 </r>
       <r>    5.5720    0.0000 </r>
       <r>    5.6075    0.0000 </r>
       <r>    7.6733    0.0000 </r>
       <r>    8.4688    0.0000 </r>
       <r>    8.6148    0.0000 </r>
       <r>    9.7278    0.0000 </r>
       <r>   11.4129    0.0000 </r>
       <r>   12.4218    0.0000 </r>
       <r>   15.8913    0.0000 </r>
      </set>
      <set comment="kpoint 4">
       <r>  -22.2172    1.0000 </r>
       <r>  -10.3200    1.0000 </r>
       <r>   -5.8620    1.0000 </r>
       <r>   -5.8185    1.0000 </r>
       <r>    0.5500    0.0000 </r>
       <r>    1.3448    0.0000 </r>
       <r>    1.6954    0.0000 </r>
       <r>    2.6225    0.0000 </r>
       <r>    3.0575    0.0000 </r>
       <r>    4.7431    0.0000 </r>
       <r>    5.3555    0.0000 </r>
       <r>    5.5812    0.0000 </r>
       <r>    5.6611    0.0000 </r>
       <r>    7.6898    0.0000 </r>
       <r>    8.4858    0.0000 </r>
       <r>    8.5718    0.0000 </r>
       <r>    9.7497    0.0000 </r>
       <r>   11.4289    0.0000 </r>
       <r>   12.4386    0.0000 </r>
       <r>   15.9059    0.0000 </r>
      </set>
      <set comment="kpoint 5">
       <r>  -22.2000    1.0000 </r>
       <r>  -10.2994    1.0000 </r>
       <r>   -5.9325    1.0000 </r>
       <r>   -5.8555    1.0000 </r>
       <r>    0.5734    0.0000 </r>
       <r>    1.3684    0.0000 </r>
       <r>    1.7193    0.0000 </r>
       <r>    2.6462    0.0000 </r>
       <r>    3.0811    0.0000 </r>
       <r>    4.7665    0.0000 </r>
       <r>    5.3763    0.0000 </r>
       <r>    5.5934    0.0000 </r>
       <r>    5.7356    0.0000 </r>
       <r>    7.7128    0.0000 </r>
       <r>    8.5096    0.0000 </r>
       <r>    8.5118    0.0000 </r>
       <r>    9.7807    0.0000 </r>
       <r>   11.4512    0.0000 </r>
       <r>   12.4621    0.0000 </r>
       <r>   15.9262    0.0000 </r>
      </set>
      <set comment="kpoint 6">
       <r>  -22.1779    1.0000 </r>
       <r>  -10.2730    1.0000 </r>
       <r>   -6.0221    1.0000 </r>
       <r>   -5.9023    1.0000 </r>
       <r>    0.6034    0.0000 </r>
       <r>    1.3988    0.0000 </r>
       <r>    1.7501    0.0000 </r>
       <r>    2.6767    0.0000 </r>
       <r>    3.1115    0.0000 </r>
       <r>    4.7967    0.0000 </r>
       <r>    5.4026    0.0000 </r>
       <r>    5.6082    0.0000 </r>
       <r>    5.8306    0.0000 </r>
       <r>    7.7425    0.0000 </r>
       <r>    8.4353    0.0000 </r>
       <r>    8.5401    0.0000 </r>
       <r>    9.8211    0.0000 </r>
       <r>   11.4798    0.0000 </r>
       <r>   12.4923    0.0000 </r>
       <r>   15.9522    0.0000 </r>
      </set>
      <set comment="kpoint 7">
       <r>  -22.1508    1.0000 </r>
       <r>  -10.2408    1.0000 </r>
       <r>   -6.1299    1.0000 </r>
       <r>   -5.9583    1.0000 </r>
       <r>    0.6401    0.0000 </r>
       <r>    1.4360    0.0000 </r>
       <r>    1.7877    0.0000 </r>
       <r>    2.7140    0.0000 </r>
       <r>    3.1487    0.0000 </r>
       <r>    4.8336    0.0000 </r>
       <r>    5.4339    0.0000 </r>
       <r>    5.6251    0.0000 </r>
       <r>    5.9453    0.0000 </r>
       <r>    7.7787    0.0000 </r>
       <r>    8.3427    0.0000 </r>
       <r>    8.5774    0.0000 </r>
       <r>    9.8714    0.0000 </r>
       <r>   11.5148    0.0000 </r>
       <r>   12.5292    0.0000 </r>
       <r>   15.9837    0.0000 </r>
      </set>
      <set comment="kpoint 8">
       <r>  -22.1189    1.0000 </r>
       <r>  -10.2027    1.0000 </r>
       <r>   -6.2549    1.0000 </r>
       <r>   -6.0228    1.0000 </r>
       <r>    0.6834    0.0000 </r>
       <r>    1.4799    0.0000 </r>
       <r>    1.8321    0.0000 </r>
       <r>    2.7580    0.0000 </r>
       <r>    3.1926    0.0000 </r>
       <r>    4.8772    0.0000 </r>
       <r>    5.4691    0.0000 </r>
       <r>    5.6446    0.0000 </r>
       <r>    6.0791    0.0000 </r>
       <r>    7.8214    0.0000 </r>
       <r>    8.2346    0.0000 </r>
       <r>    8.6214    0.0000 </r>
       <r>    9.9318    0.0000 </r>
       <r>   11.5561    0.0000 </r>
       <r>   12.5728    0.0000 </r>
       <r>   16.0207    0.0000 </r>
      </set>
      <set comment="kpoint 9">
       <r>  -22.0821    1.0000 </r>
       <r>  -10.1588    1.0000 </r>
       <r>   -6.3962    1.0000 </r>
       <r>   -6.0951    1.0000 </r>
       <r>    0.7334    0.0000 </r>
       <r>    1.5305    0.0000 </r>
       <r>    1.8834    0.0000 </r>
       <r>    2.8088    0.0000 </r>
       <r>    3.2433    0.0000 </r>
       <r>    4.9275    0.0000 </r>
       <r>    5.5061    0.0000 </r>
       <r>    5.6677    0.0000 </r>
       <r>    6.2312    0.0000 </r>
       <r>    7.8705    0.0000 </r>
       <r>    8.1116    0.0000 </r>
       <r>    8.6722    0.0000 </r>
       <r>   10.0027    0.0000 </r>
       <r>   11.6036    0.0000 </r>
       <r>   12.6230    0.0000 </r>
       <r>   16.0631    0.0000 </r>
      </set>
      <set comment="kpoint 10">
       <r>  -22.0403    1.0000 </r>
       <r>  -10.1091    1.0000 </r>
       <r>   -6.5526    1.0000 </r>
       <r>   -6.1744    1.0000 </r>
       <r>    0.7901    0.0000 </r>
       <r>    1.5879    0.0000 </r>
       <r>    1.9415    0.0000 </r>
       <r>    2.8663    0.0000 </r>
       <r>    3.3008    0.0000 </r>
       <r>    4.9844    0.0000 </r>
       <r>    5.5412    0.0000 </r>
       <r>    5.6972    0.0000 </r>
       <r>    6.4008    0.0000 </r>
       <r>    7.9235    0.0000 </r>
       <r>    7.9769    0.0000 </r>
       <r>    8.7296    0.0000 </r>
       <r>   10.0843    0.0000 </r>
       <r>   11.6574    0.0000 </r>
       <r>   12.6799    0.0000 </r>
       <r>   16.1105    0.0000 </r>
      </set>
      <set comment="kpoint 11">
       <r>  -21.9937    1.0000 </r>
       <r>  -10.0537    1.0000 </r>
       <r>   -6.7231    1.0000 </r>
       <r>   -6.2600    1.0000 </r>
       <r>    0.8535    0.0000 </r>
       <r>    1.6521    0.0000 </r>
       <r>    2.0065    0.0000 </r>
       <r>    2.9307    0.0000 </r>
       <r>    3.3650    0.0000 </r>
       <r>    5.0480    0.0000 </r>
       <r>    5.5697    0.0000 </r>
       <r>    5.7372    0.0000 </r>
       <r>    6.5870    0.0000 </r>
       <r>    7.8204    0.0000 </r>
       <r>    7.9909    0.0000 </r>
       <r>    8.7937    0.0000 </r>
       <r>   10.1765    0.0000 </r>
       <r>   11.7174    0.0000 </r>
       <r>   12.7434    0.0000 </r>
       <r>   16.1628    0.0000 </r>
      </set>
      <set comment="kpoint 12">
       <r>  -21.9422    1.0000 </r>
       <r>   -9.9925    1.0000 </r>
       <r>   -6.9065    1.0000 </r>
       <r>   -6.3511    1.0000 </r>
       <r>    0.9235    0.0000 </r>
       <r>    1.7229    0.0000 </r>
       <r>    2.0783    0.0000 </r>
       <r>    3.0017    0.0000 </r>
       <r>    3.4359    0.0000 </r>
       <r>    5.1183    0.0000 </r>
       <r>    5.5883    0.0000 </r>
       <r>    5.7902    0.0000 </r>
       <r>    6.7890    0.0000 </r>
       <r>    7.6563    0.0000 </r>
       <r>    8.0594    0.0000 </r>
       <r>    8.8644    0.0000 </r>
       <r>   10.2795    0.0000 </r>
       <r>   11.7836    0.0000 </r>
       <r>   12.8135    0.0000 </r>
       <r>   16.2197    0.0000 </r>
      </set>
      <set comment="kpoint 13">
       <r>  -21.8858    1.0000 </r>
       <r>   -9.9255    1.0000 </r>
       <r>   -7.1018    1.0000 </r>
       <r>   -6.4469    1.0000 </r>
       <r>    1.0002    0.0000 </r>
       <r>    1.8005    0.0000 </r>
       <r>    2.1569    0.0000 </r>
       <r>    3.0795    0.0000 </r>
       <r>    3.5136    0.0000 </r>
       <r>    5.1952    0.0000 </r>
       <r>    5.5973    0.0000 </r>
       <r>    5.8558    0.0000 </r>
       <r>    7.0059    0.0000 </r>
       <r>    7.4794    0.0000 </r>
       <r>    8.1348    0.0000 </r>
       <r>    8.9417    0.0000 </r>
       <r>   10.3929    0.0000 </r>
       <r>   11.8558    0.0000 </r>
       <r>   12.8902    0.0000 </r>
       <r>   16.2808    0.0000 </r>
      </set>
      <set comment="kpoint 14">
       <r>  -21.8246    1.0000 </r>
       <r>   -9.8528    1.0000 </r>
       <r>   -7.3079    1.0000 </r>
       <r>   -6.5466    1.0000 </r>
       <r>    1.0836    0.0000 </r>
       <r>    1.8848    0.0000 </r>
       <r>    2.2424    0.0000 </r>
       <r>    3.1641    0.0000 </r>
       <r>    3.5980    0.0000 </r>
       <r>    5.2787    0.0000 </r>
       <r>    5.5981    0.0000 </r>
       <r>    5.9319    0.0000 </r>
       <r>    7.2367    0.0000 </r>
       <r>    7.2907    0.0000 </r>
       <r>    8.2168    0.0000 </r>
       <r>    9.0256    0.0000 </r>
       <r>   10.5163    0.0000 </r>
       <r>   11.9341    0.0000 </r>
       <r>   12.9735    0.0000 </r>
       <r>   16.3455    0.0000 </r>
      </set>
      <set comment="kpoint 15">
       <r>  -21.7585    1.0000 </r>
       <r>   -9.7745    1.0000 </r>
       <r>   -7.5237    1.0000 </r>
       <r>   -6.6496    1.0000 </r>
       <r>    1.1736    0.0000 </r>
       <r>    1.9758    0.0000 </r>
       <r>    2.3347    0.0000 </r>
       <r>    3.2554    0.0000 </r>
       <r>    3.6892    0.0000 </r>
       <r>    5.3687    0.0000 </r>
       <r>    5.5923    0.0000 </r>
       <r>    6.0172    0.0000 </r>
       <r>    7.0911    0.0000 </r>
       <r>    7.4808    0.0000 </r>
       <r>    8.3053    0.0000 </r>
       <r>    9.1161    0.0000 </r>
       <r>   10.6491    0.0000 </r>
       <r>   12.0184    0.0000 </r>
       <r>   13.0633    0.0000 </r>
       <r>   16.4133    0.0000 </r>
      </set>
      <set comment="kpoint 16">
       <r>  -21.6876    1.0000 </r>
       <r>   -9.6905    1.0000 </r>
       <r>   -7.7482    1.0000 </r>
       <r>   -6.7551    1.0000 </r>
       <r>    1.2703    0.0000 </r>
       <r>    2.0734    0.0000 </r>
       <r>    2.4338    0.0000 </r>
       <r>    3.3534    0.0000 </r>
       <r>    3.7871    0.0000 </r>
       <r>    5.4651    0.0000 </r>
       <r>    5.5807    0.0000 </r>
       <r>    6.1106    0.0000 </r>
       <r>    6.8814    0.0000 </r>
       <r>    7.7371    0.0000 </r>
       <r>    8.4004    0.0000 </r>
       <r>    9.2132    0.0000 </r>
       <r>   10.7907    0.0000 </r>
       <r>   12.1085    0.0000 </r>
       <r>   13.1597    0.0000 </r>
       <r>   16.4833    0.0000 </r>
      </set>
      <set comment="kpoint 17">
       <r>  -21.6118    1.0000 </r>
       <r>   -9.6010    1.0000 </r>
       <r>   -7.9804    1.0000 </r>
       <r>   -6.8625    1.0000 </r>
       <r>    1.3737    0.0000 </r>
       <r>    2.1778    0.0000 </r>
       <r>    2.5398    0.0000 </r>
       <r>    3.4580    0.0000 </r>
       <r>    3.8917    0.0000 </r>
       <r>    5.5641    0.0000 </r>
       <r>    5.5677    0.0000 </r>
       <r>    6.2118    0.0000 </r>
       <r>    6.6627    0.0000 </r>
       <r>    8.0049    0.0000 </r>
       <r>    8.5018    0.0000 </r>
       <r>    9.3169    0.0000 </r>
       <r>   10.9403    0.0000 </r>
       <r>   12.2044    0.0000 </r>
       <r>   13.2626    0.0000 </r>
       <r>   16.5544    0.0000 </r>
      </set>
      <set comment="kpoint 18">
       <r>  -21.5313    1.0000 </r>
       <r>   -9.5059    1.0000 </r>
       <r>   -8.2196    1.0000 </r>
       <r>   -6.9712    1.0000 </r>
       <r>    1.4836    0.0000 </r>
       <r>    2.2888    0.0000 </r>
       <r>    2.6526    0.0000 </r>
       <r>    3.5694    0.0000 </r>
       <r>    4.0030    0.0000 </r>
       <r>    5.5431    0.0000 </r>
       <r>    5.6756    0.0000 </r>
       <r>    6.3203    0.0000 </r>
       <r>    6.4364    0.0000 </r>
       <r>    8.2835    0.0000 </r>
       <r>    8.6097    0.0000 </r>
       <r>    9.4271    0.0000 </r>
       <r>   11.0967    0.0000 </r>
       <r>   12.3060    0.0000 </r>
       <r>   13.3720    0.0000 </r>
       <r>   16.6251    0.0000 </r>
      </set>
      <set comment="kpoint 19">
       <r>  -21.4459    1.0000 </r>
       <r>   -9.4053    1.0000 </r>
       <r>   -8.4649    1.0000 </r>
       <r>   -7.0806    1.0000 </r>
       <r>    1.6003    0.0000 </r>
       <r>    2.4064    0.0000 </r>
       <r>    2.7723    0.0000 </r>
       <r>    3.6873    0.0000 </r>
       <r>    4.1209    0.0000 </r>
       <r>    5.5181    0.0000 </r>
       <r>    5.7857    0.0000 </r>
       <r>    6.2066    0.0000 </r>
       <r>    6.4360    0.0000 </r>
       <r>    8.5720    0.0000 </r>
       <r>    8.7240    0.0000 </r>
       <r>    9.5438    0.0000 </r>
       <r>   11.2591    0.0000 </r>
       <r>   12.4130    0.0000 </r>
       <r>   13.4879    0.0000 </r>
       <r>   16.6931    0.0000 </r>
      </set>
      <set comment="kpoint 20">
       <r>  -21.3557    1.0000 </r>
       <r>   -9.2993    1.0000 </r>
       <r>   -8.7154    1.0000 </r>
       <r>   -7.1901    1.0000 </r>
       <r>    1.7235    0.0000 </r>
       <r>    2.5305    0.0000 </r>
       <r>    2.8988    0.0000 </r>
       <r>    3.8117    0.0000 </r>
       <r>    4.2453    0.0000 </r>
       <r>    5.4899    0.0000 </r>
       <r>    5.8563    0.0000 </r>
       <r>    6.0159    0.0000 </r>
       <r>    6.5586    0.0000 </r>
       <r>    8.8446    0.0000 </r>
       <r>    8.8696    0.0000 </r>
       <r>    9.6672    0.0000 </r>
       <r>   11.4262    0.0000 </r>
       <r>   12.5254    0.0000 </r>
       <r>   13.6102    0.0000 </r>
       <r>   16.7556    0.0000 </r>
      </set>
      <set comment="kpoint 21">
       <r>  -21.2608    1.0000 </r>
       <r>   -9.1879    1.0000 </r>
       <r>   -8.9704    1.0000 </r>
       <r>   -7.2994    1.0000 </r>
       <r>    1.8534    0.0000 </r>
       <r>    2.6611    0.0000 </r>
       <r>    3.0321    0.0000 </r>
       <r>    3.9425    0.0000 </r>
       <r>    4.3762    0.0000 </r>
       <r>    5.4590    0.0000 </r>
       <r>    5.6803    0.0000 </r>
       <r>    6.0719    0.0000 </r>
       <r>    6.6883    0.0000 </r>
       <r>    8.9716    0.0000 </r>
       <r>    9.1758    0.0000 </r>
       <r>    9.7970    0.0000 </r>
       <r>   11.5967    0.0000 </r>
       <r>   12.6429    0.0000 </r>
       <r>   13.7390    0.0000 </r>
       <r>   16.8083    0.0000 </r>
      </set>
      <set comment="kpoint 22">
       <r>  -21.1612    1.0000 </r>
       <r>   -9.2293    1.0000 </r>
       <r>   -9.0713    1.0000 </r>
       <r>   -7.4080    1.0000 </r>
       <r>    1.9898    0.0000 </r>
       <r>    2.7981    0.0000 </r>
       <r>    3.1722    0.0000 </r>
       <r>    4.0793    0.0000 </r>
       <r>    4.5134    0.0000 </r>
       <r>    5.4260    0.0000 </r>
       <r>    5.4334    0.0000 </r>
       <r>    6.2005    0.0000 </r>
       <r>    6.8248    0.0000 </r>
       <r>    9.1048    0.0000 </r>
       <r>    9.4896    0.0000 </r>
       <r>    9.9334    0.0000 </r>
       <r>   11.7693    0.0000 </r>
       <r>   12.7653    0.0000 </r>
       <r>   13.8742    0.0000 </r>
       <r>   16.8455    0.0000 </r>
      </set>
      <set comment="kpoint 23">
       <r>  -21.0568    1.0000 </r>
       <r>   -9.4915    1.0000 </r>
       <r>   -8.9494    1.0000 </r>
       <r>   -7.5153    1.0000 </r>
       <r>    2.1329    0.0000 </r>
       <r>    2.9413    0.0000 </r>
       <r>    3.3192    0.0000 </r>
       <r>    4.2210    0.0000 </r>
       <r>    4.6565    0.0000 </r>
       <r>    5.1776    0.0000 </r>
       <r>    5.3918    0.0000 </r>
       <r>    6.3413    0.0000 </r>
       <r>    6.9681    0.0000 </r>
       <r>    9.2442    0.0000 </r>
       <r>    9.8104    0.0000 </r>
       <r>   10.0764    0.0000 </r>
       <r>   11.9423    0.0000 </r>
       <r>   12.8920    0.0000 </r>
       <r>   14.0157    0.0000 </r>
       <r>   16.8598    0.0000 </r>
      </set>
      <set comment="kpoint 24">
       <r>  -20.9477    1.0000 </r>
       <r>   -9.7563    1.0000 </r>
       <r>   -8.8223    1.0000 </r>
       <r>   -7.6212    1.0000 </r>
       <r>    2.2825    0.0000 </r>
       <r>    3.0901    0.0000 </r>
       <r>    3.4729    0.0000 </r>
       <r>    4.3637    0.0000 </r>
       <r>    4.8044    0.0000 </r>
       <r>    4.9223    0.0000 </r>
       <r>    5.3579    0.0000 </r>
       <r>    6.4900    0.0000 </r>
       <r>    7.1183    0.0000 </r>
       <r>    9.3897    0.0000 </r>
       <r>   10.1376    0.0000 </r>
       <r>   10.2259    0.0000 </r>
       <r>   12.1140    0.0000 </r>
       <r>   13.0228    0.0000 </r>
       <r>   14.1635    0.0000 </r>
       <r>   16.8430    0.0000 </r>
      </set>
      <set comment="kpoint 25">
       <r>  -20.8339    1.0000 </r>
       <r>  -10.0232    1.0000 </r>
       <r>   -8.6903    1.0000 </r>
       <r>   -7.7251    1.0000 </r>
       <r>    2.4387    0.0000 </r>
       <r>    3.2438    0.0000 </r>
       <r>    3.6335    0.0000 </r>
       <r>    4.4715    0.0000 </r>
       <r>    4.7057    0.0000 </r>
       <r>    4.9541    0.0000 </r>
       <r>    5.3278    0.0000 </r>
       <r>    6.6459    0.0000 </r>
       <r>    7.2752    0.0000 </r>
       <r>    9.5412    0.0000 </r>
       <r>   10.3818    0.0000 </r>
       <r>   10.4703    0.0000 </r>
       <r>   12.2823    0.0000 </r>
       <r>   13.1570    0.0000 </r>
       <r>   14.3175    0.0000 </r>
       <r>   16.7882    0.0000 </r>
      </set>
      <set comment="kpoint 26">
       <r>  -20.7155    1.0000 </r>
       <r>  -10.2917    1.0000 </r>
       <r>   -8.5534    1.0000 </r>
       <r>   -7.8269    1.0000 </r>
       <r>    2.6015    0.0000 </r>
       <r>    3.3997    0.0000 </r>
       <r>    3.8009    0.0000 </r>
       <r>    4.3343    0.0000 </r>
       <r>    4.7414    0.0000 </r>
       <r>    5.0919    0.0000 </r>
       <r>    5.3155    0.0000 </r>
       <r>    6.8086    0.0000 </r>
       <r>    7.4388    0.0000 </r>
       <r>    9.6988    0.0000 </r>
       <r>   10.5443    0.0000 </r>
       <r>   10.8078    0.0000 </r>
       <r>   12.4449    0.0000 </r>
       <r>   13.2938    0.0000 </r>
       <r>   14.4777    0.0000 </r>
       <r>   16.6931    0.0000 </r>
      </set>
      <set comment="kpoint 27">
       <r>  -20.5925    1.0000 </r>
       <r>  -10.5614    1.0000 </r>
       <r>   -8.4116    1.0000 </r>
       <r>   -7.9262    1.0000 </r>
       <r>    2.7707    0.0000 </r>
       <r>    3.5468    0.0000 </r>
       <r>    3.9751    0.0000 </r>
       <r>    4.0961    0.0000 </r>
       <r>    4.8972    0.0000 </r>
       <r>    5.1615    0.0000 </r>
       <r>    5.3777    0.0000 </r>
       <r>    6.9779    0.0000 </r>
       <r>    7.6092    0.0000 </r>
       <r>    9.8621    0.0000 </r>
       <r>   10.7133    0.0000 </r>
       <r>   11.1493    0.0000 </r>
       <r>   12.5985    0.0000 </r>
       <r>   13.4320    0.0000 </r>
       <r>   14.6440    0.0000 </r>
       <r>   16.5609    0.0000 </r>
      </set>
      <set comment="kpoint 28">
       <r>  -20.4649    1.0000 </r>
       <r>  -10.8318    1.0000 </r>
       <r>   -8.2653    1.0000 </r>
       <r>   -8.0228    1.0000 </r>
       <r>    2.9464    0.0000 </r>
       <r>    3.6088    0.0000 </r>
       <r>    3.9358    0.0000 </r>
       <r>    4.1560    0.0000 </r>
       <r>    5.0710    0.0000 </r>
       <r>    5.1527    0.0000 </r>
       <r>    5.5252    0.0000 </r>
       <r>    7.1537    0.0000 </r>
       <r>    7.7862    0.0000 </r>
       <r>   10.0312    0.0000 </r>
       <r>   10.8887    0.0000 </r>
       <r>   11.4941    0.0000 </r>
       <r>   12.7399    0.0000 </r>
       <r>   13.5701    0.0000 </r>
       <r>   14.8163    0.0000 </r>
       <r>   16.3989    0.0000 </r>
      </set>
      <set comment="kpoint 29">
       <r>  -20.3327    1.0000 </r>
       <r>  -11.1025    1.0000 </r>
       <r>   -8.1163    1.0000 </r>
       <r>   -8.1145    1.0000 </r>
       <r>    3.1285    0.0000 </r>
       <r>    3.4343    0.0000 </r>
       <r>    4.0143    0.0000 </r>
       <r>    4.3435    0.0000 </r>
       <r>    5.1228    0.0000 </r>
       <r>    5.2541    0.0000 </r>
       <r>    5.7010    0.0000 </r>
       <r>    7.3361    0.0000 </r>
       <r>    7.9699    0.0000 </r>
       <r>   10.2058    0.0000 </r>
       <r>   11.0705    0.0000 </r>
       <r>   11.8411    0.0000 </r>
       <r>   12.8642    0.0000 </r>
       <r>   13.7056    0.0000 </r>
       <r>   14.9943    0.0000 </r>
       <r>   16.2158    0.0000 </r>
      </set>
      <set comment="kpoint 30">
       <r>  -20.1961    1.0000 </r>
       <r>  -11.3731    1.0000 </r>
       <r>   -8.2067    1.0000 </r>
       <r>   -7.9595    1.0000 </r>
       <r>    3.1744    0.0000 </r>
       <r>    3.3170    0.0000 </r>
       <r>    4.1826    0.0000 </r>
       <r>    4.5374    0.0000 </r>
       <r>    5.0884    0.0000 </r>
       <r>    5.4450    0.0000 </r>
       <r>    5.8890    0.0000 </r>
       <r>    7.5249    0.0000 </r>
       <r>    8.1602    0.0000 </r>
       <r>   10.3857    0.0000 </r>
       <r>   11.2587    0.0000 </r>
       <r>   12.1897    0.0000 </r>
       <r>   12.9658    0.0000 </r>
       <r>   13.8347    0.0000 </r>
       <r>   15.1779    0.0000 </r>
       <r>   16.0197    0.0000 </r>
      </set>
      <set comment="kpoint 31">
       <r>  -20.0550    1.0000 </r>
       <r>  -11.6432    1.0000 </r>
       <r>   -8.2937    1.0000 </r>
       <r>   -7.8004    1.0000 </r>
       <r>    2.8994    0.0000 </r>
       <r>    3.5117    0.0000 </r>
       <r>    4.3719    0.0000 </r>
       <r>    4.7367    0.0000 </r>
       <r>    5.0544    0.0000 </r>
       <r>    5.6430    0.0000 </r>
       <r>    6.0858    0.0000 </r>
       <r>    7.7200    0.0000 </r>
       <r>    8.3572    0.0000 </r>
       <r>   10.5707    0.0000 </r>
       <r>   11.4532    0.0000 </r>
       <r>   12.5388    0.0000 </r>
       <r>   13.0381    0.0000 </r>
       <r>   13.9513    0.0000 </r>
       <r>   15.3665    0.0000 </r>
       <r>   15.8190    0.0000 </r>
      </set>
      <set comment="kpoint 32">
       <r>  -19.9094    1.0000 </r>
       <r>  -11.9127    1.0000 </r>
       <r>   -8.3772    1.0000 </r>
       <r>   -7.6376    1.0000 </r>
       <r>    2.6200    0.0000 </r>
       <r>    3.7123    0.0000 </r>
       <r>    4.5721    0.0000 </r>
       <r>    4.9296    0.0000 </r>
       <r>    5.0339    0.0000 </r>
       <r>    5.8479    0.0000 </r>
       <r>    6.2903    0.0000 </r>
       <r>    7.9215    0.0000 </r>
       <r>    8.5607    0.0000 </r>
       <r>   10.7604    0.0000 </r>
       <r>   11.6539    0.0000 </r>
       <r>   12.8873    0.0000 </r>
       <r>   13.0731    0.0000 </r>
       <r>   14.0451    0.0000 </r>
       <r>   15.5595    0.0000 </r>
       <r>   15.6240    0.0000 </r>
      </set>
      <set comment="kpoint 33">
       <r>  -19.7595    1.0000 </r>
       <r>  -12.1810    1.0000 </r>
       <r>   -8.4569    1.0000 </r>
       <r>   -7.4713    1.0000 </r>
       <r>    2.3397    0.0000 </r>
       <r>    3.9186    0.0000 </r>
       <r>    4.7805    0.0000 </r>
       <r>    4.9692    0.0000 </r>
       <r>    5.1751    0.0000 </r>
       <r>    6.0596    0.0000 </r>
       <r>    6.5020    0.0000 </r>
       <r>    8.1292    0.0000 </r>
       <r>    8.7709    0.0000 </r>
       <r>   10.9544    0.0000 </r>
       <r>   11.8608    0.0000 </r>
       <r>   13.0629    0.0000 </r>
       <r>   13.2342    0.0000 </r>
       <r>   14.0991    0.0000 </r>
       <r>   15.4493    0.0000 </r>
       <r>   15.7533    0.0000 </r>
      </set>
      <set comment="kpoint 34">
       <r>  -19.6053    1.0000 </r>
       <r>  -12.4480    1.0000 </r>
       <r>   -8.5327    1.0000 </r>
       <r>   -7.3019    1.0000 </r>
       <r>    2.0601    0.0000 </r>
       <r>    4.1297    0.0000 </r>
       <r>    4.9423    0.0000 </r>
       <r>    4.9964    0.0000 </r>
       <r>    5.3923    0.0000 </r>
       <r>    6.2780    0.0000 </r>
       <r>    6.7207    0.0000 </r>
       <r>    8.3430    0.0000 </r>
       <r>    8.9875    0.0000 </r>
       <r>   11.1519    0.0000 </r>
       <r>   12.0735    0.0000 </r>
       <r>   13.0013    0.0000 </r>
       <r>   13.5783    0.0000 </r>
       <r>   14.0903    0.0000 </r>
       <r>   15.3130    0.0000 </r>
       <r>   15.8432    0.0000 </r>
      </set>
      <set comment="kpoint 35">
       <r>  -19.4470    1.0000 </r>
       <r>  -12.7132    1.0000 </r>
       <r>   -8.6045    1.0000 </r>
       <r>   -7.1299    1.0000 </r>
       <r>    1.7824    0.0000 </r>
       <r>    4.3433    0.0000 </r>
       <r>    4.9171    0.0000 </r>
       <r>    5.2193    0.0000 </r>
       <r>    5.6199    0.0000 </r>
       <r>    6.5030    0.0000 </r>
       <r>    6.9463    0.0000 </r>
       <r>    8.5628    0.0000 </r>
       <r>    9.2107    0.0000 </r>
       <r>   11.3519    0.0000 </r>
       <r>   12.2911    0.0000 </r>
       <r>   12.8865    0.0000 </r>
       <r>   13.9183    0.0000 </r>
       <r>   14.0003    0.0000 </r>
       <r>   15.2220    0.0000 </r>
       <r>   15.5066    0.0000 </r>
      </set>
      <set comment="kpoint 36">
       <r>  -19.2845    1.0000 </r>
       <r>  -12.9765    1.0000 </r>
       <r>   -8.6721    1.0000 </r>
       <r>   -6.9558    1.0000 </r>
       <r>    1.5077    0.0000 </r>
       <r>    4.5509    0.0000 </r>
       <r>    4.9049    0.0000 </r>
       <r>    5.4489    0.0000 </r>
       <r>    5.8550    0.0000 </r>
       <r>    6.7347    0.0000 </r>
       <r>    7.1787    0.0000 </r>
       <r>    8.7885    0.0000 </r>
       <r>    9.4403    0.0000 </r>
       <r>   11.5527    0.0000 </r>
       <r>   12.5063    0.0000 </r>
       <r>   12.7280    0.0000 </r>
       <r>   13.8336    0.0000 </r>
       <r>   14.2524    0.0000 </r>
       <r>   15.1252    0.0000 </r>
       <r>   15.1462    0.0000 </r>
      </set>
      <set comment="kpoint 37">
       <r>  -19.1180    1.0000 </r>
       <r>  -13.2376    1.0000 </r>
       <r>   -8.7356    1.0000 </r>
       <r>   -6.7802    1.0000 </r>
       <r>    1.2370    0.0000 </r>
       <r>    4.7095    0.0000 </r>
       <r>    4.9496    0.0000 </r>
       <r>    5.6852    0.0000 </r>
       <r>    6.0973    0.0000 </r>
       <r>    6.9728    0.0000 </r>
       <r>    7.4179    0.0000 </r>
       <r>    9.0199    0.0000 </r>
       <r>    9.6763    0.0000 </r>
       <r>   11.7513    0.0000 </r>
       <r>   12.4850    0.0000 </r>
       <r>   12.7663    0.0000 </r>
       <r>   13.6129    0.0000 </r>
       <r>   14.5791    0.0000 </r>
       <r>   14.7297    0.0000 </r>
       <r>   15.0133    0.0000 </r>
      </set>
      <set comment="kpoint 38">
       <r>  -18.9476    1.0000 </r>
       <r>  -13.4960    1.0000 </r>
       <r>   -8.7947    1.0000 </r>
       <r>   -6.6039    1.0000 </r>
       <r>    0.9714    0.0000 </r>
       <r>    4.7522    0.0000 </r>
       <r>    5.1181    0.0000 </r>
       <r>    5.9280    0.0000 </r>
       <r>    6.3465    0.0000 </r>
       <r>    7.2174    0.0000 </r>
       <r>    7.6637    0.0000 </r>
       <r>    9.2569    0.0000 </r>
       <r>    9.9187    0.0000 </r>
       <r>   11.9410    0.0000 </r>
       <r>   12.2415    0.0000 </r>
       <r>   12.9960    0.0000 </r>
       <r>   13.3643    0.0000 </r>
       <r>   14.3293    0.0000 </r>
       <r>   14.7764    0.0000 </r>
       <r>   14.8970    0.0000 </r>
      </set>
      <set comment="kpoint 39">
       <r>  -18.7736    1.0000 </r>
       <r>  -13.7516    1.0000 </r>
       <r>   -8.8493    1.0000 </r>
       <r>   -6.4278    1.0000 </r>
       <r>    0.7122    0.0000 </r>
       <r>    4.7443    0.0000 </r>
       <r>    5.3455    0.0000 </r>
       <r>    6.1771    0.0000 </r>
       <r>    6.6026    0.0000 </r>
       <r>    7.4685    0.0000 </r>
       <r>    7.9162    0.0000 </r>
       <r>    9.4990    0.0000 </r>
       <r>   10.1673    0.0000 </r>
       <r>   11.9643    0.0000 </r>
       <r>   12.1051    0.0000 </r>
       <r>   13.1172    0.0000 </r>
       <r>   13.2372    0.0000 </r>
       <r>   13.9293    0.0000 </r>
       <r>   14.4731    0.0000 </r>
       <r>   14.8810    0.0000 </r>
      </set>
      <set comment="kpoint 40">
       <r>  -18.5961    1.0000 </r>
       <r>  -14.0040    1.0000 </r>
       <r>   -8.8995    1.0000 </r>
       <r>   -6.2531    1.0000 </r>
       <r>    0.4608    0.0000 </r>
       <r>    4.7266    0.0000 </r>
       <r>    5.5909    0.0000 </r>
       <r>    6.4326    0.0000 </r>
       <r>    6.8655    0.0000 </r>
       <r>    7.7259    0.0000 </r>
       <r>    8.1753    0.0000 </r>
       <r>    9.7458    0.0000 </r>
       <r>   10.4220    0.0000 </r>
       <r>   11.6666    0.0000 </r>
       <r>   12.1931    0.0000 </r>
       <r>   12.9272    0.0000 </r>
       <r>   13.4813    0.0000 </r>
       <r>   13.5356    0.0000 </r>
       <r>   14.1464    0.0000 </r>
       <r>   14.5519    0.0000 </r>
      </set>
      <set comment="kpoint 41">
       <r>  -18.4155    1.0000 </r>
       <r>  -14.2527    1.0000 </r>
       <r>   -8.9450    1.0000 </r>
       <r>   -6.0812    1.0000 </r>
       <r>    0.2189    0.0000 </r>
       <r>    4.7072    0.0000 </r>
       <r>    5.8462    0.0000 </r>
       <r>    6.6942    0.0000 </r>
       <r>    7.1353    0.0000 </r>
       <r>    7.9896    0.0000 </r>
       <r>    8.4410    0.0000 </r>
       <r>    9.9965    0.0000 </r>
       <r>   10.6822    0.0000 </r>
       <r>   11.3559    0.0000 </r>
       <r>   12.1136    0.0000 </r>
       <r>   12.8832    0.0000 </r>
       <r>   13.1383    0.0000 </r>
       <r>   13.7381    0.0000 </r>
       <r>   13.8209    0.0000 </r>
       <r>   14.2120    0.0000 </r>
      </set>
      <set comment="kpoint 42">
       <r>  -18.2323    1.0000 </r>
       <r>  -14.4972    1.0000 </r>
       <r>   -8.9860    1.0000 </r>
       <r>   -5.9139    1.0000 </r>
       <r>   -0.0116    0.0000 </r>
       <r>    4.6885    0.0000 </r>
       <r>    6.1093    0.0000 </r>
       <r>    6.9619    0.0000 </r>
       <r>    7.4119    0.0000 </r>
       <r>    8.2595    0.0000 </r>
       <r>    8.7132    0.0000 </r>
       <r>   10.2494    0.0000 </r>
       <r>   10.9356    0.0000 </r>
       <r>   11.0493    0.0000 </r>
       <r>   11.8878    0.0000 </r>
       <r>   12.7506    0.0000 </r>
       <r>   12.9373    0.0000 </r>
       <r>   13.5319    0.0000 </r>
       <r>   13.8542    0.0000 </r>
       <r>   14.0066    0.0000 </r>
      </set>
      <set comment="kpoint 43">
       <r>  -18.0470    1.0000 </r>
       <r>  -14.7367    1.0000 </r>
       <r>   -9.0222    1.0000 </r>
       <r>   -5.7534    1.0000 </r>
       <r>   -0.2283    0.0000 </r>
       <r>    4.6712    0.0000 </r>
       <r>    6.3793    0.0000 </r>
       <r>    7.2355    0.0000 </r>
       <r>    7.6953    0.0000 </r>
       <r>    8.5354    0.0000 </r>
       <r>    8.9918    0.0000 </r>
       <r>   10.5002    0.0000 </r>
       <r>   10.7044    0.0000 </r>
       <r>   11.2283    0.0000 </r>
       <r>   11.6085    0.0000 </r>
       <r>   12.3684    0.0000 </r>
       <r>   12.8815    0.0000 </r>
       <r>   13.3985    0.0000 </r>
       <r>   13.5094    0.0000 </r>
       <r>   14.2640    0.0000 </r>
      </set>
      <set comment="kpoint 44">
       <r>  -17.8607    1.0000 </r>
       <r>  -14.9702    1.0000 </r>
       <r>   -9.0537    1.0000 </r>
       <r>   -5.6023    1.0000 </r>
       <r>   -0.4284    0.0000 </r>
       <r>    4.6558    0.0000 </r>
       <r>    6.6556    0.0000 </r>
       <r>    7.5149    0.0000 </r>
       <r>    7.9855    0.0000 </r>
       <r>    8.8170    0.0000 </r>
       <r>    9.2767    0.0000 </r>
       <r>   10.3784    0.0000 </r>
       <r>   10.7300    0.0000 </r>
       <r>   11.3318    0.0000 </r>
       <r>   11.5057    0.0000 </r>
       <r>   11.9923    0.0000 </r>
       <r>   12.6303    0.0000 </r>
       <r>   13.1589    0.0000 </r>
       <r>   13.4577    0.0000 </r>
       <r>   14.5303    0.0000 </r>
      </set>
      <set comment="kpoint 45">
       <r>  -17.6750    1.0000 </r>
       <r>  -15.1959    1.0000 </r>
       <r>   -9.0804    1.0000 </r>
       <r>   -5.4639    1.0000 </r>
       <r>   -0.6084    0.0000 </r>
       <r>    4.6425    0.0000 </r>
       <r>    6.9379    0.0000 </r>
       <r>    7.7998    0.0000 </r>
       <r>    8.2824    0.0000 </r>
       <r>    9.1039    0.0000 </r>
       <r>    9.5669    0.0000 </r>
       <r>   10.0519    0.0000 </r>
       <r>   10.8011    0.0000 </r>
       <r>   11.2061    0.0000 </r>
       <r>   11.6216    0.0000 </r>
       <r>   11.7907    0.0000 </r>
       <r>   12.3203    0.0000 </r>
       <r>   12.8098    0.0000 </r>
       <r>   13.5314    0.0000 </r>
       <r>   14.3990    0.0000 </r>
      </set>
      <set comment="kpoint 46">
       <r>  -17.4927    1.0000 </r>
       <r>  -15.4109    1.0000 </r>
       <r>   -9.1023    1.0000 </r>
       <r>   -5.3420    1.0000 </r>
       <r>   -0.7646    0.0000 </r>
       <r>    4.6315    0.0000 </r>
       <r>    7.2261    0.0000 </r>
       <r>    8.0899    0.0000 </r>
       <r>    8.5861    0.0000 </r>
       <r>    9.3950    0.0000 </r>
       <r>    9.7143    0.0000 </r>
       <r>    9.8754    0.0000 </r>
       <r>   10.5720    0.0000 </r>
       <r>   11.2584    0.0000 </r>
       <r>   11.3689    0.0000 </r>
       <r>   12.0101    0.0000 </r>
       <r>   12.0797    0.0000 </r>
       <r>   12.4642    0.0000 </r>
       <r>   13.5081    0.0000 </r>
       <r>   14.3263    0.0000 </r>
      </set>
      <set comment="kpoint 47">
       <r>  -17.3193    1.0000 </r>
       <r>  -15.6099    1.0000 </r>
       <r>   -9.1194    1.0000 </r>
       <r>   -5.2407    1.0000 </r>
       <r>   -0.8926    0.0000 </r>
       <r>    4.6228    0.0000 </r>
       <r>    7.5196    0.0000 </r>
       <r>    8.3846    0.0000 </r>
       <r>    8.8963    0.0000 </r>
       <r>    9.3965    0.0000 </r>
       <r>    9.6852    0.0000 </r>
       <r>   10.1731    0.0000 </r>
       <r>   10.2788    0.0000 </r>
       <r>   10.9013    0.0000 </r>
       <r>   11.4944    0.0000 </r>
       <r>   11.8062    0.0000 </r>
       <r>   12.1184    0.0000 </r>
       <r>   12.3783    0.0000 </r>
       <r>   13.3612    0.0000 </r>
       <r>   14.2348    0.0000 </r>
      </set>
      <set comment="kpoint 48">
       <r>  -17.1651    1.0000 </r>
       <r>  -15.7823    1.0000 </r>
       <r>   -9.1316    1.0000 </r>
       <r>   -5.1643    1.0000 </r>
       <r>   -0.9882    0.0000 </r>
       <r>    4.6166    0.0000 </r>
       <r>    7.8178    0.0000 </r>
       <r>    8.6826    0.0000 </r>
       <r>    9.0733    0.0000 </r>
       <r>    9.2165    0.0000 </r>
       <r>    9.8728    0.0000 </r>
       <r>   10.0830    0.0000 </r>
       <r>   10.4817    0.0000 </r>
       <r>   10.5516    0.0000 </r>
       <r>   11.2745    0.0000 </r>
       <r>   11.7818    0.0000 </r>
       <r>   11.9568    0.0000 </r>
       <r>   12.6773    0.0000 </r>
       <r>   13.1487    0.0000 </r>
       <r>   13.9197    0.0000 </r>
      </set>
      <set comment="kpoint 49">
       <r>  -17.0506    1.0000 </r>
       <r>  -15.9079    1.0000 </r>
       <r>   -9.1389    1.0000 </r>
       <r>   -5.1166    1.0000 </r>
       <r>   -1.0473    0.0000 </r>
       <r>    4.6129    0.0000 </r>
       <r>    8.1181    0.0000 </r>
       <r>    8.7613    0.0000 </r>
       <r>    8.9796    0.0000 </r>
       <r>    9.5386    0.0000 </r>
       <r>    9.6270    0.0000 </r>
       <r>   10.2065    0.0000 </r>
       <r>   10.3256    0.0000 </r>
       <r>   10.7986    0.0000 </r>
       <r>   10.9725    0.0000 </r>
       <r>   11.4491    0.0000 </r>
       <r>   12.1754    0.0000 </r>
       <r>   12.9320    0.0000 </r>
       <r>   12.9815    0.0000 </r>
       <r>   13.6058    0.0000 </r>
      </set>
      <set comment="kpoint 50">
       <r>  -17.0063    1.0000 </r>
       <r>  -15.9558    1.0000 </r>
       <r>   -9.1414    1.0000 </r>
       <r>   -5.1004    1.0000 </r>
       <r>   -1.0673    0.0000 </r>
       <r>    4.6116    0.0000 </r>
       <r>    8.3599    0.0000 </r>
       <r>    8.5151    0.0000 </r>
       <r>    9.2019    0.0000 </r>
       <r>    9.4058    0.0000 </r>
       <r>    9.8647    0.0000 </r>
       <r>    9.8736    0.0000 </r>
       <r>   10.5558    0.0000 </r>
       <r>   10.7361    0.0000 </r>
       <r>   11.1034    0.0000 </r>
       <r>   11.1387    0.0000 </r>
       <r>   12.2935    0.0000 </r>
       <r>   12.8154    0.0000 </r>
       <r>   13.2622    0.0000 </r>
       <r>   13.3218    0.0000 </r>
      </set>
      <set comment="kpoint 51">
       <r>  -17.0063    1.0000 </r>
       <r>  -15.9558    1.0000 </r>
       <r>   -9.1414    1.0000 </r>
       <r>   -5.1004    1.0000 </r>
       <r>   -1.0673    0.0000 </r>
       <r>    4.6116    0.0000 </r>
       <r>    8.3599    0.0000 </r>
       <r>    8.5151    0.0000 </r>
       <r>    9.2019    0.0000 </r>
       <r>    9.4058    0.0000 </r>
       <r>    9.8647    0.0000 </r>
       <r>    9.8736    0.0000 </r>
       <r>   10.5558    0.0000 </r>
       <r>   10.7361    0.0000 </r>
       <r>   11.1034    0.0000 </r>
       <r>   11.1387    0.0000 </r>
       <r>   12.2935    0.0000 </r>
       <r>   12.8154    0.0000 </r>
       <r>   13.2622    0.0000 </r>
       <r>   13.3218    0.0000 </r>
      </set>
      <set comment="kpoint 52">
       <r>  -17.0056    1.0000 </r>
       <r>  -15.9551    1.0000 </r>
       <r>   -9.1451    1.0000 </r>
       <r>   -5.0994    1.0000 </r>
       <r>   -1.0676    0.0000 </r>
       <r>    4.6167    0.0000 </r>
       <r>    8.3609    0.0000 </r>
       <r>    8.5161    0.0000 </r>
       <r>    9.2020    0.0000 </r>
       <r>    9.4070    0.0000 </r>
       <r>    9.8659    0.0000 </r>
       <r>    9.8747    0.0000 </r>
       <r>   10.5562    0.0000 </r>
       <r>   10.7373    0.0000 </r>
       <r>   11.1044    0.0000 </r>
       <r>   11.1398    0.0000 </r>
       <r>   12.2929    0.0000 </r>
       <r>   12.8166    0.0000 </r>
       <r>   13.2630    0.0000 </r>
       <r>   13.3228    0.0000 </r>
      </set>
      <set comment="kpoint 53">
       <r>  -17.0035    1.0000 </r>
       <r>  -15.9531    1.0000 </r>
       <r>   -9.1562    1.0000 </r>
       <r>   -5.0964    1.0000 </r>
       <r>   -1.0683    0.0000 </r>
       <r>    4.6317    0.0000 </r>
       <r>    8.3638    0.0000 </r>
       <r>    8.5192    0.0000 </r>
       <r>    9.2023    0.0000 </r>
       <r>    9.4103    0.0000 </r>
       <r>    9.8692    0.0000 </r>
       <r>    9.8781    0.0000 </r>
       <r>   10.5577    0.0000 </r>
       <r>   10.7407    0.0000 </r>
       <r>   11.1075    0.0000 </r>
       <r>   11.1431    0.0000 </r>
       <r>   12.2910    0.0000 </r>
       <r>   12.8200    0.0000 </r>
       <r>   13.2654    0.0000 </r>
       <r>   13.3258    0.0000 </r>
      </set>
      <set comment="kpoint 54">
       <r>  -16.9999    1.0000 </r>
       <r>  -15.9496    1.0000 </r>
       <r>   -9.1747    1.0000 </r>
       <r>   -5.0915    1.0000 </r>
       <r>   -1.0694    0.0000 </r>
       <r>    4.6567    0.0000 </r>
       <r>    8.3686    0.0000 </r>
       <r>    8.5243    0.0000 </r>
       <r>    9.2028    0.0000 </r>
       <r>    9.4160    0.0000 </r>
       <r>    9.8749    0.0000 </r>
       <r>    9.8838    0.0000 </r>
       <r>   10.5601    0.0000 </r>
       <r>   10.7463    0.0000 </r>
       <r>   11.1127    0.0000 </r>
       <r>   11.1485    0.0000 </r>
       <r>   12.2878    0.0000 </r>
       <r>   12.8256    0.0000 </r>
       <r>   13.2693    0.0000 </r>
       <r>   13.3308    0.0000 </r>
      </set>
      <set comment="kpoint 55">
       <r>  -16.9950    1.0000 </r>
       <r>  -15.9447    1.0000 </r>
       <r>   -9.2005    1.0000 </r>
       <r>   -5.0845    1.0000 </r>
       <r>   -1.0711    0.0000 </r>
       <r>    4.6916    0.0000 </r>
       <r>    8.3753    0.0000 </r>
       <r>    8.5315    0.0000 </r>
       <r>    9.2033    0.0000 </r>
       <r>    9.4239    0.0000 </r>
       <r>    9.8828    0.0000 </r>
       <r>    9.8917    0.0000 </r>
       <r>   10.5634    0.0000 </r>
       <r>   10.7543    0.0000 </r>
       <r>   11.1199    0.0000 </r>
       <r>   11.1560    0.0000 </r>
       <r>   12.2833    0.0000 </r>
       <r>   12.8335    0.0000 </r>
       <r>   13.2748    0.0000 </r>
       <r>   13.3377    0.0000 </r>
      </set>
      <set comment="kpoint 56">
       <r>  -16.9887    1.0000 </r>
       <r>  -15.9385    1.0000 </r>
       <r>   -9.2334    1.0000 </r>
       <r>   -5.0755    1.0000 </r>
       <r>   -1.0733    0.0000 </r>
       <r>    4.7362    0.0000 </r>
       <r>    8.3840    0.0000 </r>
       <r>    8.5407    0.0000 </r>
       <r>    9.2037    0.0000 </r>
       <r>    9.4340    0.0000 </r>
       <r>    9.8929    0.0000 </r>
       <r>    9.9019    0.0000 </r>
       <r>   10.5677    0.0000 </r>
       <r>   10.7645    0.0000 </r>
       <r>   11.1292    0.0000 </r>
       <r>   11.1658    0.0000 </r>
       <r>   12.2774    0.0000 </r>
       <r>   12.8436    0.0000 </r>
       <r>   13.2818    0.0000 </r>
       <r>   13.3467    0.0000 </r>
      </set>
      <set comment="kpoint 57">
       <r>  -16.9809    1.0000 </r>
       <r>  -15.9309    1.0000 </r>
       <r>   -9.2733    1.0000 </r>
       <r>   -5.0645    1.0000 </r>
       <r>   -1.0760    0.0000 </r>
       <r>    4.7903    0.0000 </r>
       <r>    8.3945    0.0000 </r>
       <r>    8.5520    0.0000 </r>
       <r>    9.2041    0.0000 </r>
       <r>    9.4465    0.0000 </r>
       <r>    9.9053    0.0000 </r>
       <r>    9.9144    0.0000 </r>
       <r>   10.5728    0.0000 </r>
       <r>   10.7769    0.0000 </r>
       <r>   11.1406    0.0000 </r>
       <r>   11.1776    0.0000 </r>
       <r>   12.2702    0.0000 </r>
       <r>   12.8560    0.0000 </r>
       <r>   13.2903    0.0000 </r>
       <r>   13.3577    0.0000 </r>
      </set>
      <set comment="kpoint 58">
       <r>  -16.9718    1.0000 </r>
       <r>  -15.9219    1.0000 </r>
       <r>   -9.3201    1.0000 </r>
       <r>   -5.0516    1.0000 </r>
       <r>   -1.0793    0.0000 </r>
       <r>    4.8539    0.0000 </r>
       <r>    8.4070    0.0000 </r>
       <r>    8.5653    0.0000 </r>
       <r>    9.2041    0.0000 </r>
       <r>    9.4611    0.0000 </r>
       <r>    9.9199    0.0000 </r>
       <r>    9.9291    0.0000 </r>
       <r>   10.5788    0.0000 </r>
       <r>   10.7917    0.0000 </r>
       <r>   11.1540    0.0000 </r>
       <r>   11.1917    0.0000 </r>
       <r>   12.2616    0.0000 </r>
       <r>   12.8706    0.0000 </r>
       <r>   13.3003    0.0000 </r>
       <r>   13.3706    0.0000 </r>
      </set>
      <set comment="kpoint 59">
       <r>  -16.9612    1.0000 </r>
       <r>  -15.9115    1.0000 </r>
       <r>   -9.3734    1.0000 </r>
       <r>   -5.0366    1.0000 </r>
       <r>   -1.0832    0.0000 </r>
       <r>    4.9265    0.0000 </r>
       <r>    8.4214    0.0000 </r>
       <r>    8.5806    0.0000 </r>
       <r>    9.2036    0.0000 </r>
       <r>    9.4781    0.0000 </r>
       <r>    9.9368    0.0000 </r>
       <r>    9.9461    0.0000 </r>
       <r>   10.5856    0.0000 </r>
       <r>   10.8087    0.0000 </r>
       <r>   11.1695    0.0000 </r>
       <r>   11.2079    0.0000 </r>
       <r>   12.2516    0.0000 </r>
       <r>   12.8875    0.0000 </r>
       <r>   13.3117    0.0000 </r>
       <r>   13.3855    0.0000 </r>
      </set>
      <set comment="kpoint 60">
       <r>  -16.9493    1.0000 </r>
       <r>  -15.8998    1.0000 </r>
       <r>   -9.4330    1.0000 </r>
       <r>   -5.0197    1.0000 </r>
       <r>   -1.0878    0.0000 </r>
       <r>    5.0080    0.0000 </r>
       <r>    8.4377    0.0000 </r>
       <r>    8.5980    0.0000 </r>
       <r>    9.2024    0.0000 </r>
       <r>    9.4972    0.0000 </r>
       <r>    9.9560    0.0000 </r>
       <r>    9.9653    0.0000 </r>
       <r>   10.5931    0.0000 </r>
       <r>   10.8280    0.0000 </r>
       <r>   11.1870    0.0000 </r>
       <r>   11.2262    0.0000 </r>
       <r>   12.2403    0.0000 </r>
       <r>   12.9067    0.0000 </r>
       <r>   13.3245    0.0000 </r>
       <r>   13.4024    0.0000 </r>
      </set>
      <set comment="kpoint 61">
       <r>  -16.9359    1.0000 </r>
       <r>  -15.8868    1.0000 </r>
       <r>   -9.4988    1.0000 </r>
       <r>   -5.0008    1.0000 </r>
[...]
       </set>
       <set comment="band 16">
        <r>  0.0063  0.0000  0.0000  0.0000  0.0000  0.0000  0.0000  0.0000  0.0000 </r>
        <r>  0.0063  0.0000  0.0000  0.0000  0.0000  0.0000  0.0000  0.0000  0.0000 </r>
       </set>
       <set comment="band 17">
        <r>  0.3524  0.0002  0.0000  0.0079  0.0000  0.0000  0.0000  0.0000  0.0000 </r>
        <r>  0.3524  0.0002  0.0000  0.0079  0.0000  0.0000  0.0000  0.0000  0.0000 </r>
       </set>
       <set comment="band 18">
        <r>  0.0000  0.0000  0.0219  0.0000  0.0000  0.0000  0.0000  0.0000  0.0000 </r>
        <r>  0.0000  0.0000  0.0219  0.0000  0.0000  0.0000  0.0000  0.0000  0.0000 </r>
       </set>
       <set comment="band 19">
        <r>  0.0063  0.0000  0.0000  0.0000  0.0000  0.0000  0.0000  0.0000  0.0000 </r>
        <r>  0.0063  0.0000  0.0000  0.0000  0.0000  0.0000  0.0000  0.0000  0.0000 </r>
       </set>
       <set comment="band 20">
        <r>  0.0000  0.0000  0.0262  0.0000  0.0000  0.0000  0.0000  0.0000  0.0000 </r>
        <r>  0.0000  0.0000  0.0262  0.0000  0.0000  0.0000  0.0000  0.0000  0.0000 </r>
       </set>
      </set>
      <set comment="kpoint 147">
       <set comment="band 1">
        <r>  0.3207  0.0000  0.0000  0.0006  0.0000  0.0000  0.0000  0.0000  0.0000 </r>
        <r>  0.3207  0.0000  0.0000  0.0006  0.0000  0.0000  0.0000  0.0000  0.0000 </r>
       </set>
       <set comment="band 2">
        <r>  0.0000  0.0000  0.2153  0.0000  0.0000  0.0000  0.0000  0.0000  0.0000 </r>
        <r>  0.0000  0.0000  0.2153  0.0000  0.0000  0.0000  0.0000  0.0000  0.0000 </r>
       </set>
       <set comment="band 3">
        <r>  0.0036  0.0022  0.0000  0.4042  0.0000  0.0000  0.0000  0.0000  0.0000 </r>
        <r>  0.0036  0.0022  0.0000  0.4042  0.0000  0.0000  0.0000  0.0000  0.0000 </r>
       </set>
       <set comment="band 4">
        <r>  0.0000  0.4080  0.0000  0.0023  0.0000  0.0000  0.0000  0.0000  0.0000 </r>
        <r>  0.0000  0.4080  0.0000  0.0023  0.0000  0.0000  0.0000  0.0000  0.0000 </r>
       </set>
       <set comment="band 5">
        <r>  0.0098  0.0000  0.0000  0.0001  0.0000  0.0000  0.0000  0.0000  0.0000 </r>
        <r>  0.0098  0.0000  0.0000  0.0001  0.0000  0.0000  0.0000  0.0000  0.0000 </r>
       </set>
       <set comment="band 6">
        <r>  0.0000  0.0000  0.0112  0.0000  0.0000  0.0000  0.0000  0.0000  0.0000 </r>
        <r>  0.0000  0.0000  0.0112  0.0000  0.0000  0.0000  0.0000  0.0000  0.0000 </r>
       </set>
       <set comment="band 7">
        <r>  0.0010  0.0000  0.0000  0.0000  0.0000  0.0000  0.0000  0.0000  0.0000 </r>
        <r>  0.0010  0.0000  0.0000  0.0000  0.0000  0.0000  0.0000  0.0000  0.0000 </r>
       </set>
       <set comment="band 8">
        <r>  0.0000  0.0000  0.0083  0.0000  0.0000  0.0000  0.0000  0.0000  0.0000 </r>
        <r>  0.0000  0.0000  0.0083  0.0000  0.0000  0.0000  0.0000  0.0000  0.0000 </r>
       </set>
       <set comment="band 9">
        <r>  0.0037  0.0000  0.0000  0.0001  0.0000  0.0000  0.0000  0.0000  0.0000 </r>
        <r>  0.0037  0.0000  0.0000  0.0001  0.0000  0.0000  0.0000  0.0000  0.0000 </r>
       </set>
       <set comment="band 10">
        <r>  0.0000  0.0000  0.0127  0.0000  0.0000  0.0000  0.0000  0.0000  0.0000 </r>
        <r>  0.0000  0.0000  0.0127  0.0000  0.0000  0.0000  0.0000  0.0000  0.0000 </r>
       </set>
       <set comment="band 11">
        <r>  0.0046  0.0001  0.0000  0.0058  0.0000  0.0000  0.0000  0.0000  0.0000 </r>
        <r>  0.0046  0.0001  0.0000  0.0058  0.0000  0.0000  0.0000  0.0000  0.0000 </r>
       </set>
       <set comment="band 12">
        <r>  0.0025  0.0030  0.0000  0.2507  0.0000  0.0000  0.0000  0.0000  0.0000 </r>
        <r>  0.0025  0.0030  0.0000  0.2507  0.0000  0.0000  0.0000  0.0000  0.0000 </r>
       </set>
       <set comment="band 13">
        <r>  0.0002  0.2604  0.0000  0.0029  0.0000  0.0000  0.0000  0.0000  0.0000 </r>
        <r>  0.0002  0.2604  0.0000  0.0029  0.0000  0.0000  0.0000  0.0000  0.0000 </r>
       </set>
       <set comment="band 14">
        <r>  0.0000  0.0000  0.0176  0.0000  0.0000  0.0000  0.0000  0.0000  0.0000 </r>
        <r>  0.0000  0.0000  0.0176  0.0000  0.0000  0.0000  0.0000  0.0000  0.0000 </r>
       </set>
       <set comment="band 15">
        <r>  0.0062  0.0000  0.0000  0.0000  0.0000  0.0000  0.0000  0.0000  0.0000 </r>
        <r>  0.0062  0.0000  0.0000  0.0000  0.0000  0.0000  0.0000  0.0000  0.0000 </r>
       </set>
       <set comment="band 16">
        <r>  0.0000  0.0000  0.3871  0.0000  0.0000  0.0000  0.0000  0.0000  0.0000 </r>
        <r>  0.0000  0.0000  0.3871  0.0000  0.0000  0.0000  0.0000  0.0000  0.0000 </r>
       </set>
       <set comment="band 17">
        <r>  0.3559  0.0001  0.0000  0.0044  0.0000  0.0000  0.0000  0.0000  0.0000 </r>
        <r>  0.3559  0.0001  0.0000  0.0044  0.0000  0.0000  0.0000  0.0000  0.0000 </r>
       </set>
       <set comment="band 18">
        <r>  0.0000  0.0000  0.0219  0.0000  0.0000  0.0000  0.0000  0.0000  0.0000 </r>
        <r>  0.0000  0.0000  0.0219  0.0000  0.0000  0.0000  0.0000  0.0000  0.0000 </r>
       </set>
       <set comment="band 19">
        <r>  0.0063  0.0000  0.0000  0.0000  0.0000  0.0000  0.0000  0.0000  0.0000 </r>
        <r>  0.0063  0.0000  0.0000  0.0000  0.0000  0.0000  0.0000  0.0000  0.0000 </r>
       </set>
       <set comment="band 20">
        <r>  0.0000  0.0000  0.0261  0.0000  0.0000  0.0000  0.0000  0.0000  0.0000 </r>
        <r>  0.0000  0.0000  0.0261  0.0000  0.0000  0.0000  0.0000  0.0000  0.0000 </r>
       </set>
      </set>
      <set comment="kpoint 148">
       <set comment="band 1">
        <r>  0.3209  0.0000  0.0000  0.0003  0.0000  0.0000  0.0000  0.0000  0.0000 </r>
        <r>  0.3209  0.0000  0.0000  0.0003  0.0000  0.0000  0.0000  0.0000  0.0000 </r>
       </set>
       <set comment="band 2">
        <r>  0.0000  0.0000  0.2152  0.0000  0.0000  0.0000  0.0000  0.0000  0.0000 </r>
        <r>  0.0000  0.0000  0.2152  0.0000  0.0000  0.0000  0.0000  0.0000  0.0000 </r>
       </set>
       <set comment="band 3">
        <r>  0.0016  0.0010  0.0000  0.4080  0.0000  0.0000  0.0000  0.0000  0.0000 </r>
        <r>  0.0016  0.0010  0.0000  0.4080  0.0000  0.0000  0.0000  0.0000  0.0000 </r>
       </set>
       <set comment="band 4">
        <r>  0.0000  0.4097  0.0000  0.0010  0.0000  0.0000  0.0000  0.0000  0.0000 </r>
        <r>  0.0000  0.4097  0.0000  0.0010  0.0000  0.0000  0.0000  0.0000  0.0000 </r>
       </set>
       <set comment="band 5">
        <r>  0.0098  0.0000  0.0000  0.0000  0.0000  0.0000  0.0000  0.0000  0.0000 </r>
        <r>  0.0098  0.0000  0.0000  0.0000  0.0000  0.0000  0.0000  0.0000  0.0000 </r>
       </set>
       <set comment="band 6">
        <r>  0.0000  0.0000  0.0112  0.0000  0.0000  0.0000  0.0000  0.0000  0.0000 </r>
        <r>  0.0000  0.0000  0.0112  0.0000  0.0000  0.0000  0.0000  0.0000  0.0000 </r>
       </set>
       <set comment="band 7">
        <r>  0.0010  0.0000  0.0000  0.0000  0.0000  0.0000  0.0000  0.0000  0.0000 </r>
        <r>  0.0010  0.0000  0.0000  0.0000  0.0000  0.0000  0.0000  0.0000  0.0000 </r>
       </set>
       <set comment="band 8">
        <r>  0.0000  0.0000  0.0083  0.0000  0.0000  0.0000  0.0000  0.0000  0.0000 </r>
        <r>  0.0000  0.0000  0.0083  0.0000  0.0000  0.0000  0.0000  0.0000  0.0000 </r>
       </set>
       <set comment="band 9">
        <r>  0.0037  0.0000  0.0000  0.0000  0.0000  0.0000  0.0000  0.0000  0.0000 </r>
        <r>  0.0037  0.0000  0.0000  0.0000  0.0000  0.0000  0.0000  0.0000  0.0000 </r>
       </set>
       <set comment="band 10">
        <r>  0.0000  0.0000  0.0127  0.0000  0.0000  0.0000  0.0000  0.0000  0.0000 </r>
        <r>  0.0000  0.0000  0.0127  0.0000  0.0000  0.0000  0.0000  0.0000  0.0000 </r>
       </set>
       <set comment="band 11">
        <r>  0.0051  0.0000  0.0000  0.0025  0.0000  0.0000  0.0000  0.0000  0.0000 </r>
        <r>  0.0051  0.0000  0.0000  0.0025  0.0000  0.0000  0.0000  0.0000  0.0000 </r>
       </set>
       <set comment="band 12">
        <r>  0.0011  0.0014  0.0000  0.2572  0.0000  0.0000  0.0000  0.0000  0.0000 </r>
        <r>  0.0011  0.0014  0.0000  0.2572  0.0000  0.0000  0.0000  0.0000  0.0000 </r>
       </set>
       <set comment="band 13">
        <r>  0.0000  0.2615  0.0000  0.0013  0.0000  0.0000  0.0000  0.0000  0.0000 </r>
        <r>  0.0000  0.2615  0.0000  0.0013  0.0000  0.0000  0.0000  0.0000  0.0000 </r>
       </set>
       <set comment="band 14">
        <r>  0.0000  0.0000  0.0176  0.0000  0.0000  0.0000  0.0000  0.0000  0.0000 </r>
        <r>  0.0000  0.0000  0.0176  0.0000  0.0000  0.0000  0.0000  0.0000  0.0000 </r>
       </set>
       <set comment="band 15">
        <r>  0.0062  0.0000  0.0000  0.0000  0.0000  0.0000  0.0000  0.0000  0.0000 </r>
        <r>  0.0062  0.0000  0.0000  0.0000  0.0000  0.0000  0.0000  0.0000  0.0000 </r>
       </set>
       <set comment="band 16">
        <r>  0.0000  0.0000  0.3885  0.0000  0.0000  0.0000  0.0000  0.0000  0.0000 </r>
        <r>  0.0000  0.0000  0.3885  0.0000  0.0000  0.0000  0.0000  0.0000  0.0000 </r>
       </set>
       <set comment="band 17">
        <r>  0.3583  0.0000  0.0000  0.0019  0.0000  0.0000  0.0000  0.0000  0.0000 </r>
        <r>  0.3583  0.0000  0.0000  0.0019  0.0000  0.0000  0.0000  0.0000  0.0000 </r>
       </set>
       <set comment="band 18">
        <r>  0.0000  0.0000  0.0219  0.0000  0.0000  0.0000  0.0000  0.0000  0.0000 </r>
        <r>  0.0000  0.0000  0.0219  0.0000  0.0000  0.0000  0.0000  0.0000  0.0000 </r>
       </set>
       <set comment="band 19">
        <r>  0.0062  0.0000  0.0000  0.0000  0.0000  0.0000  0.0000  0.0000  0.0000 </r>
        <r>  0.0062  0.0000  0.0000  0.0000  0.0000  0.0000  0.0000  0.0000  0.0000 </r>
       </set>
       <set comment="band 20">
        <r>  0.0000  0.0000  0.0260  0.0000  0.0000  0.0000  0.0000  0.0000  0.0000 </r>
        <r>  0.0000  0.0000  0.0260  0.0000  0.0000  0.0000  0.0000  0.0000  0.0000 </r>
       </set>
      </set>
      <set comment="kpoint 149">
       <set comment="band 1">
        <r>  0.3211  0.0000  0.0000  0.0001  0.0000  0.0000  0.0000  0.0000  0.0000 </r>
        <r>  0.3211  0.0000  0.0000  0.0001  0.0000  0.0000  0.0000  0.0000  0.0000 </r>
       </set>
       <set comment="band 2">
        <r>  0.0000  0.0000  0.2152  0.0000  0.0000  0.0000  0.0000  0.0000  0.0000 </r>
        <r>  0.0000  0.0000  0.2152  0.0000  0.0000  0.0000  0.0000  0.0000  0.0000 </r>
       </set>
       <set comment="band 3">
        <r>  0.0004  0.0003  0.0000  0.4103  0.0000  0.0000  0.0000  0.0000  0.0000 </r>
        <r>  0.0004  0.0003  0.0000  0.4103  0.0000  0.0000  0.0000  0.0000  0.0000 </r>
       </set>
       <set comment="band 4">
        <r>  0.0000  0.4108  0.0000  0.0003  0.0000  0.0000  0.0000  0.0000  0.0000 </r>
        <r>  0.0000  0.4108  0.0000  0.0003  0.0000  0.0000  0.0000  0.0000  0.0000 </r>
       </set>
       <set comment="band 5">
        <r>  0.0098  0.0000  0.0000  0.0000  0.0000  0.0000  0.0000  0.0000  0.0000 </r>
        <r>  0.0098  0.0000  0.0000  0.0000  0.0000  0.0000  0.0000  0.0000  0.0000 </r>
       </set>
       <set comment="band 6">
        <r>  0.0000  0.0000  0.0112  0.0000  0.0000  0.0000  0.0000  0.0000  0.0000 </r>
        <r>  0.0000  0.0000  0.0112  0.0000  0.0000  0.0000  0.0000  0.0000  0.0000 </r>
       </set>
       <set comment="band 7">
        <r>  0.0010  0.0000  0.0000  0.0000  0.0000  0.0000  0.0000  0.0000  0.0000 </r>
        <r>  0.0010  0.0000  0.0000  0.0000  0.0000  0.0000  0.0000  0.0000  0.0000 </r>
       </set>
       <set comment="band 8">
        <r>  0.0000  0.0000  0.0083  0.0000  0.0000  0.0000  0.0000  0.0000  0.0000 </r>
        <r>  0.0000  0.0000  0.0083  0.0000  0.0000  0.0000  0.0000  0.0000  0.0000 </r>
       </set>
       <set comment="band 9">
        <r>  0.0037  0.0000  0.0000  0.0000  0.0000  0.0000  0.0000  0.0000  0.0000 </r>
        <r>  0.0037  0.0000  0.0000  0.0000  0.0000  0.0000  0.0000  0.0000  0.0000 </r>
       </set>
       <set comment="band 10">
        <r>  0.0000  0.0000  0.0126  0.0000  0.0000  0.0000  0.0000  0.0000  0.0000 </r>
        <r>  0.0000  0.0000  0.0126  0.0000  0.0000  0.0000  0.0000  0.0000  0.0000 </r>
       </set>
       <set comment="band 11">
        <r>  0.0054  0.0000  0.0000  0.0006  0.0000  0.0000  0.0000  0.0000  0.0000 </r>
        <r>  0.0054  0.0000  0.0000  0.0006  0.0000  0.0000  0.0000  0.0000  0.0000 </r>
       </set>
       <set comment="band 12">
        <r>  0.0003  0.0003  0.0000  0.2611  0.0000  0.0000  0.0000  0.0000  0.0000 </r>
        <r>  0.0003  0.0003  0.0000  0.2611  0.0000  0.0000  0.0000  0.0000  0.0000 </r>
       </set>
       <set comment="band 13">
        <r>  0.0000  0.2621  0.0000  0.0003  0.0000  0.0000  0.0000  0.0000  0.0000 </r>
        <r>  0.0000  0.2621  0.0000  0.0003  0.0000  0.0000  0.0000  0.0000  0.0000 </r>
       </set>
       <set comment="band 14">
        <r>  0.0000  0.0000  0.0176  0.0000  0.0000  0.0000  0.0000  0.0000  0.0000 </r>
        <r>  0.0000  0.0000  0.0176  0.0000  0.0000  0.0000  0.0000  0.0000  0.0000 </r>
       </set>
       <set comment="band 15">
        <r>  0.0061  0.0000  0.0000  0.0000  0.0000  0.0000  0.0000  0.0000  0.0000 </r>
        <r>  0.0061  0.0000  0.0000  0.0000  0.0000  0.0000  0.0000  0.0000  0.0000 </r>
       </set>
       <set comment="band 16">
        <r>  0.0000  0.0000  0.3894  0.0000  0.0000  0.0000  0.0000  0.0000  0.0000 </r>
        <r>  0.0000  0.0000  0.3894  0.0000  0.0000  0.0000  0.0000  0.0000  0.0000 </r>
       </set>
       <set comment="band 17">
        <r>  0.3597  0.0000  0.0000  0.0005  0.0000  0.0000  0.0000  0.0000  0.0000 </r>
        <r>  0.3597  0.0000  0.0000  0.0005  0.0000  0.0000  0.0000  0.0000  0.0000 </r>
       </set>
       <set comment="band 18">
        <r>  0.0000  0.0000  0.0219  0.0000  0.0000  0.0000  0.0000  0.0000  0.0000 </r>
        <r>  0.0000  0.0000  0.0219  0.0000  0.0000  0.0000  0.0000  0.0000  0.0000 </r>
       </set>
       <set comment="band 19">
        <r>  0.0062  0.0000  0.0000  0.0000  0.0000  0.0000  0.0000  0.0000  0.0000 </r>
        <r>  0.0062  0.0000  0.0000  0.0000  0.0000  0.0000  0.0000  0.0000  0.0000 </r>
       </set>
       <set comment="band 20">
        <r>  0.0000  0.0000  0.0260  0.0000  0.0000  0.0000  0.0000  0.0000  0.0000 </r>
        <r>  0.0000  0.0000  0.0260  0.0000  0.0000  0.0000  0.0000  0.0000  0.0000 </r>
       </set>
      </set>
      <set comment="kpoint 150">
       <set comment="band 1">
        <r>  0.3211  0.0000  0.0000  0.0000  0.0000  0.0000  0.0000  0.0000  0.0000 </r>
        <r>  0.3211  0.0000  0.0000  0.0000  0.0000  0.0000  0.0000  0.0000  0.0000 </r>
       </set>
       <set comment="band 2">
        <r>  0.0000  0.0000  0.2152  0.0000  0.0000  0.0000  0.0000  0.0000  0.0000 </r>
        <r>  0.0000  0.0000  0.2152  0.0000  0.0000  0.0000  0.0000  0.0000  0.0000 </r>
       </set>
       <set comment="band 3">
        <r>  0.0000  0.4111  0.0000  0.0001  0.0000  0.0000  0.0000  0.0000  0.0000 </r>
        <r>  0.0000  0.4111  0.0000  0.0001  0.0000  0.0000  0.0000  0.0000  0.0000 </r>
       </set>
       <set comment="band 4">
        <r>  0.0000  0.0001  0.0000  0.4111  0.0000  0.0000  0.0000  0.0000  0.0000 </r>
        <r>  0.0000  0.0001  0.0000  0.4111  0.0000  0.0000  0.0000  0.0000  0.0000 </r>
       </set>
       <set comment="band 5">
        <r>  0.0099  0.0000  0.0000  0.0000  0.0000  0.0000  0.0000  0.0000  0.0000 </r>
        <r>  0.0099  0.0000  0.0000  0.0000  0.0000  0.0000  0.0000  0.0000  0.0000 </r>
       </set>
       <set comment="band 6">
        <r>  0.0000  0.0000  0.0112  0.0000  0.0000  0.0000  0.0000  0.0000  0.0000 </r>
        <r>  0.0000  0.0000  0.0112  0.0000  0.0000  0.0000  0.0000  0.0000  0.0000 </r>
       </set>
       <set comment="band 7">
        <r>  0.0010  0.0000  0.0000  0.0000  0.0000  0.0000  0.0000  0.0000  0.0000 </r>
        <r>  0.0010  0.0000  0.0000  0.0000  0.0000  0.0000  0.0000  0.0000  0.0000 </r>
       </set>
       <set comment="band 8">
        <r>  0.0000  0.0000  0.0083  0.0000  0.0000  0.0000  0.0000  0.0000  0.0000 </r>
        <r>  0.0000  0.0000  0.0083  0.0000  0.0000  0.0000  0.0000  0.0000  0.0000 </r>
       </set>
       <set comment="band 9">
        <r>  0.0037  0.0000  0.0000  0.0000  0.0000  0.0000  0.0000  0.0000  0.0000 </r>
        <r>  0.0037  0.0000  0.0000  0.0000  0.0000  0.0000  0.0000  0.0000  0.0000 </r>
       </set>
       <set comment="band 10">
        <r>  0.0000  0.0000  0.0126  0.0000  0.0000  0.0000  0.0000  0.0000  0.0000 </r>
        <r>  0.0000  0.0000  0.0126  0.0000  0.0000  0.0000  0.0000  0.0000  0.0000 </r>
       </set>
       <set comment="band 11">
        <r>  0.0055  0.0000  0.0000  0.0000  0.0000  0.0000  0.0000  0.0000  0.0000 </r>
        <r>  0.0055  0.0000  0.0000  0.0000  0.0000  0.0000  0.0000  0.0000  0.0000 </r>
       </set>
       <set comment="band 12">
        <r>  0.0000  0.0000  0.0000  0.2623  0.0000  0.0000  0.0000  0.0000  0.0000 </r>
        <r>  0.0000  0.0000  0.0000  0.2623  0.0000  0.0000  0.0000  0.0000  0.0000 </r>
       </set>
       <set comment="band 13">
        <r>  0.0000  0.2623  0.0000  0.0000  0.0000  0.0000  0.0000  0.0000  0.0000 </r>
        <r>  0.0000  0.2623  0.0000  0.0000  0.0000  0.0000  0.0000  0.0000  0.0000 </r>
       </set>
       <set comment="band 14">
        <r>  0.0000  0.0000  0.0176  0.0000  0.0000  0.0000  0.0000  0.0000  0.0000 </r>
        <r>  0.0000  0.0000  0.0176  0.0000  0.0000  0.0000  0.0000  0.0000  0.0000 </r>
       </set>
       <set comment="band 15">
        <r>  0.0061  0.0000  0.0000  0.0000  0.0000  0.0000  0.0000  0.0000  0.0000 </r>
        <r>  0.0061  0.0000  0.0000  0.0000  0.0000  0.0000  0.0000  0.0000  0.0000 </r>
       </set>
       <set comment="band 16">
        <r>  0.0000  0.0000  0.3897  0.0000  0.0000  0.0000  0.0000  0.0000  0.0000 </r>
        <r>  0.0000  0.0000  0.3897  0.0000  0.0000  0.0000  0.0000  0.0000  0.0000 </r>
       </set>
       <set comment="band 17">
        <r>  0.3602  0.0000  0.0000  0.0000  0.0000  0.0000  0.0000  0.0000  0.0000 </r>
        <r>  0.3602  0.0000  0.0000  0.0000  0.0000  0.0000  0.0000  0.0000  0.0000 </r>
       </set>
       <set comment="band 18">
        <r>  0.0000  0.0000  0.0219  0.0000  0.0000  0.0000  0.0000  0.0000  0.0000 </r>
        <r>  0.0000  0.0000  0.0219  0.0000  0.0000  0.0000  0.0000  0.0000  0.0000 </r>
       </set>
       <set comment="band 19">
        <r>  0.0062  0.0000  0.0000  0.0000  0.0000  0.0000  0.0000  0.0000  0.0000 </r>
        <r>  0.0062  0.0000  0.0000  0.0000  0.0000  0.0000  0.0000  0.0000  0.0000 </r>
       </set>
       <set comment="band 20">
        <r>  0.0000  0.0000  0.0260  0.0000  0.0000  0.0000  0.0000  0.0000  0.0000 </r>
        <r>  0.0000  0.0000  0.0260  0.0000  0.0000  0.0000  0.0000  0.0000  0.0000 </r>
       </set>
      </set>
     </set>
    </set>
   </array>
  </projected>
 </calculation>
 <structure name="finalpos" >
  <crystal>
   <varray name="basis" >
    <v>       1.23385109      -2.13709277       0.00000000 </v>
    <v>       1.23385109       2.13709277       0.00000000 </v>
    <v>       0.00000000       0.00000000      20.00000000 </v>
   </varray>
   <i name="volume">    105.47416975 </i>
   <varray name="rec_basis" >
    <v>       0.40523529      -0.23396270       0.00000000 </v>
    <v>       0.40523529       0.23396270       0.00000000 </v>
    <v>       0.00000000       0.00000000       0.05000000 </v>
   </varray>
  </crystal>
  <varray name="positions" >
   <v>       0.33333636       0.66666909       0.75143735 </v>
   <v>       0.66666906       0.33333634       0.75143735 </v>
  </varray>
 </structure>
</modeling>
